       N       E                     dE             d eps       ncg     rms          rms(c)
DAV:   1     0.226394579997E+04    0.22639E+04   -0.56324E+04  3792   0.251E+03
DAV:   2     0.714942426995E+03   -0.15490E+04   -0.14059E+04  3976   0.605E+02
DAV:   3     0.106275717801E+03   -0.60867E+03   -0.55628E+03  4072   0.309E+02
DAV:   4    -0.120660760895E+03   -0.22694E+03   -0.21531E+03  5772   0.160E+02
DAV:   5    -0.162598858242E+03   -0.41938E+02   -0.40327E+02  6464   0.786E+01    0.668E+01
RMM:   6    -0.145621290075E+03    0.16978E+02   -0.49144E+02  6079   0.106E+02    0.897E+01
RMM:   7    -0.140773680735E+03    0.48476E+01   -0.84693E+01  5875   0.353E+01    0.388E+01
RMM:   8    -0.137989463305E+03    0.27842E+01   -0.26903E+01  5306   0.314E+01    0.178E+01
RMM:   9    -0.139650977386E+03   -0.16615E+01   -0.14535E+01  5768   0.152E+01    0.989E+00
RMM:  10    -0.139914173061E+03   -0.26320E+00   -0.26129E+00  6257   0.529E+00    0.592E+00
RMM:  11    -0.140066242199E+03   -0.15207E+00   -0.13827E+00  6044   0.414E+00    0.297E+00
RMM:  12    -0.140138328645E+03   -0.72086E-01   -0.46490E-01  6205   0.237E+00    0.175E+00
RMM:  13    -0.140154680475E+03   -0.16352E-01   -0.14695E-01  5705   0.152E+00    0.122E+00
RMM:  14    -0.140160548339E+03   -0.58679E-02   -0.81607E-02  5555   0.117E+00    0.612E-01
RMM:  15    -0.140165325200E+03   -0.47769E-02   -0.39639E-02  5031   0.640E-01    0.285E-01
RMM:  16    -0.140166747946E+03   -0.14227E-02   -0.18482E-02  4069   0.499E-01    0.172E-01
RMM:  17    -0.140167828435E+03   -0.10805E-02   -0.12902E-02  3642   0.408E-01    0.755E-02
RMM:  18    -0.140168709272E+03   -0.88084E-03   -0.87782E-03  3464   0.389E-01
   1 F= -.14016871E+03 E0= -.14016871E+03  d E =0.000000E+00  mag=     7.0011
