 vasp.5.4.4.18Apr17-6-g9f103f2a35 (build Oct 03 2018 13:58:34) complex          
  
 executed on             LinuxIFC date 2019.06.04  01:44:16
 running on   40 total cores
 distrk:  each k-point on   20 cores,    2 groups
 distr:  one band on NCORES_PER_BAND=  10 cores,    2 groups


--------------------------------------------------------------------------------------------------------


 INCAR:
 POTCAR:    PAW_PBE La 06Sep2000                  
 POTCAR:    PAW_PBE Mn 06Sep2000                  
 POTCAR:    PAW_PBE Ni 02Aug2007                  
 POTCAR:    PAW_PBE O 08Apr2002                   

 ----------------------------------------------------------------------------- 
|                                                                             |
|           W    W    AA    RRRRR   N    N  II  N    N   GGGG   !!!           |
|           W    W   A  A   R    R  NN   N  II  NN   N  G    G  !!!           |
|           W    W  A    A  R    R  N N  N  II  N N  N  G       !!!           |
|           W WW W  AAAAAA  RRRRR   N  N N  II  N  N N  G  GGG   !            |
|           WW  WW  A    A  R   R   N   NN  II  N   NN  G    G                |
|           W    W  A    A  R    R  N    N  II  N    N   GGGG   !!!           |
|                                                                             |
|      You have enabled k-point parallelism (KPAR>1).                         |
|      This developmental code was originally  written by Paul Kent at ORNL,  |
|      and carefully double checked in Vienna.                                |
|      GW as well as linear response parallelism added by Martijn Marsman     |
|      and Georg Kresse.                                                      |
|      Carefully verify results versus KPAR=1.                                |
|      Report problems to Paul Kent and Vienna.                               |
|                                                                             |
 ----------------------------------------------------------------------------- 

 POTCAR:    PAW_PBE La 06Sep2000                  
   VRHFIN =La : [core=Kr4d]                                                     
   LEXCH  = PE                                                                  
   EATOM  =   865.9763 eV,   63.6475 Ry                                         
                                                                                
   TITEL  = PAW_PBE La 06Sep2000                                                
   LULTRA =        F    use ultrasoft PP ?                                      
   IUNSCR =        1    unscreen: 0-lin 1-nonlin 2-no                           
   RPACOR =    2.300    partial core radius                                     
   POMASS =  138.900; ZVAL   =   11.000    mass and valenz                      
   RCORE  =    2.800    outmost cutoff radius                                   
   RWIGS  =    2.900; RWIGS  =    1.535    wigner-seitz radius (au A)           
   ENMAX  =  219.292; ENMIN  =  164.469 eV                                      
   RCLOC  =    1.601    cutoff for local pot                                    
   LCOR   =        T    correct aug charges                                     
   LPAW   =        T    paw PP                                                  
   EAUG   =  583.575                                                            
   DEXC   =    0.000                                                            
   RMAX   =    2.853    core radius for proj-oper                               
   RAUG   =    1.300    factor for augmentation sphere                          
   RDEP   =    2.802    radius for radial grids                                 
   RDEPT  =    2.156    core radius for aug-charge                              
                                                                                
   Atomic configuration                                                         
   14 entries                                                                   
     n  l   j            E        occ.                                          
     1  0  0.50    -38741.0879   2.0000                                         
     2  0  0.50     -6166.6801   2.0000                                         
     2  1  1.50     -5526.1593   6.0000                                         
     3  0  0.50     -1319.0200   2.0000                                         
     3  1  1.50     -1114.5963   6.0000                                         
     3  2  2.50      -821.1793  10.0000                                         
     4  0  0.50      -266.3851   2.0000                                         
     4  1  1.50      -199.9276   6.0000                                         
     4  2  2.50      -103.8239  10.0000                                         
     5  0  0.50       -38.9172   2.0000                                         
     6  0  0.50        -3.6792   2.0000                                         
     5  1  1.50       -22.3948   6.0000                                         
     5  2  2.50        -3.0911   0.9999                                         
     4  3  2.50        -4.3603   0.0001                                         
   Description                                                                  
     l       E           TYP  RCUT    TYP  RCUT                                 
     0    -38.9171645     23  2.800                                             
     0     -3.6792381     23  2.800                                             
     1    -22.3948300     23  2.500                                             
     1     27.2116520     23  2.500                                             
     2     -3.0910934     23  2.500                                             
     2      1.0119135     23  2.500                                             
     3     -4.3602911     23  2.800                                             
     3     -5.7208737     23  2.800                                             
  local pseudopotential read in
  partial core-charges read in
  partial kinetic energy density read in
  atomic valenz-charges read in
  non local Contribution for L=           0  read in
    real space projection operators read in
  non local Contribution for L=           0  read in
    real space projection operators read in
  non local Contribution for L=           1  read in
    real space projection operators read in
  non local Contribution for L=           1  read in
    real space projection operators read in
  non local Contribution for L=           2  read in
    real space projection operators read in
  non local Contribution for L=           2  read in
    real space projection operators read in
  non local Contribution for L=           3  read in
    real space projection operators read in
  non local Contribution for L=           3  read in
    real space projection operators read in
    PAW grid and wavefunctions read in
 
   number of l-projection  operators is LMAX  =           8
   number of lm-projection operators is LMMAX =          32
 
 POTCAR:    PAW_PBE Mn 06Sep2000                  
   VRHFIN =Mn: d6 s1                                                            
   LEXCH  = PE                                                                  
   EATOM  =   416.7541 eV,   30.6306 Ry                                         
                                                                                
   TITEL  = PAW_PBE Mn 06Sep2000                                                
   LULTRA =        F    use ultrasoft PP ?                                      
   IUNSCR =        1    unscreen: 0-lin 1-nonlin 2-no                           
   RPACOR =    2.000    partial core radius                                     
   POMASS =   54.938; ZVAL   =    7.000    mass and valenz                      
   RCORE  =    2.300    outmost cutoff radius                                   
   RWIGS  =    2.500; RWIGS  =    1.323    wigner-seitz radius (au A)           
   ENMAX  =  269.864; ENMIN  =  202.398 eV                                      
   RCLOC  =    1.725    cutoff for local pot                                    
   LCOR   =        T    correct aug charges                                     
   LPAW   =        T    paw PP                                                  
   EAUG   =  500.711                                                            
   DEXC   =    0.000                                                            
   RMAX   =    2.343    core radius for proj-oper                               
   RAUG   =    1.300    factor for augmentation sphere                          
   RDEP   =    2.338    radius for radial grids                                 
   RDEPT  =    1.911    core radius for aug-charge                              
                                                                                
   Atomic configuration                                                         
    9 entries                                                                   
     n  l   j            E        occ.                                          
     1  0  0.50     -6424.8288   2.0000                                         
     2  0  0.50      -739.1154   2.0000                                         
     2  1  1.50      -625.3949   6.0000                                         
     3  0  0.50       -81.6100   2.0000                                         
     3  1  1.50       -50.4667   6.0000                                         
     3  2  2.50        -3.3745   6.0000                                         
     4  0  0.50        -4.1331   1.0000                                         
     4  1  0.50        -4.0817   0.0000                                         
     4  3  2.50        -1.3606   0.0000                                         
   Description                                                                  
     l       E           TYP  RCUT    TYP  RCUT                                 
     2     -3.3744664     23  2.300                                             
     2     -4.7350490     23  2.300                                             
     0     -4.1331408     23  2.300                                             
     0      7.6656614     23  2.300                                             
     1     -2.7211652     23  2.300                                             
     1     20.4087390     23  2.300                                             
  local pseudopotential read in
  partial core-charges read in
  partial kinetic energy density read in
  atomic valenz-charges read in
  non local Contribution for L=           2  read in
    real space projection operators read in
  non local Contribution for L=           2  read in
    real space projection operators read in
  non local Contribution for L=           0  read in
    real space projection operators read in
  non local Contribution for L=           0  read in
    real space projection operators read in
  non local Contribution for L=           1  read in
    real space projection operators read in
  non local Contribution for L=           1  read in
    real space projection operators read in
    PAW grid and wavefunctions read in
 
   number of l-projection  operators is LMAX  =           6
   number of lm-projection operators is LMMAX =          18
 
 POTCAR:    PAW_PBE Ni 02Aug2007                  
   VRHFIN =Ni:                                                                  
   LEXCH  = PE                                                                  
   EATOM  =  1077.6739 eV,   79.2068 Ry                                         
                                                                                
   TITEL  = PAW_PBE Ni 02Aug2007                                                
   LULTRA =        F    use ultrasoft PP ?                                      
   IUNSCR =        1    unscreen: 0-lin 1-nonlin 2-no                           
   RPACOR =    2.000    partial core radius                                     
   POMASS =   58.690; ZVAL   =   10.000    mass and valenz                      
   RCORE  =    2.300    outmost cutoff radius                                   
   RWIGS  =    2.430; RWIGS  =    1.286    wigner-seitz radius (au A)           
   ENMAX  =  269.532; ENMIN  =  202.149 eV                                      
   RCLOC  =    1.201    cutoff for local pot                                    
   LCOR   =        T    correct aug charges                                     
   LPAW   =        T    paw PP                                                  
   EAUG   =  544.565                                                            
   DEXC   =    0.000                                                            
   RMAX   =    2.357    core radius for proj-oper                               
   RAUG   =    1.300    factor for augmentation sphere                          
   RDEP   =    2.390    radius for radial grids                                 
   RDEPT  =    1.838    core radius for aug-charge                              
                                                                                
   Atomic configuration                                                         
    9 entries                                                                   
     n  l   j            E        occ.                                          
     1  0  0.50     -8206.4253   2.0000                                         
     2  0  0.50      -976.1748   2.0000                                         
     2  1  1.50      -839.0571   6.0000                                         
     3  0  0.50      -105.9991   2.0000                                         
     3  1  1.50       -66.4603   6.0000                                         
     3  2  2.50        -4.6458   9.0000                                         
     4  0  0.50        -4.4926   1.0000                                         
     4  1  1.50        -4.0817   0.0000                                         
     4  3  2.50        -1.3606   0.0000                                         
   Description                                                                  
     l       E           TYP  RCUT    TYP  RCUT                                 
     2     -4.6457903     23  2.300                                             
     2     -6.0063729     23  2.300                                             
     0     -4.4925590     23  2.300                                             
     0      5.0102601     23  2.300                                             
     1     -2.7211652     23  2.300                                             
     1     16.5183231     23  2.300                                             
  local pseudopotential read in
  partial core-charges read in
  partial kinetic energy density read in
  atomic valenz-charges read in
  non local Contribution for L=           2  read in
    real space projection operators read in
  non local Contribution for L=           2  read in
    real space projection operators read in
  non local Contribution for L=           0  read in
    real space projection operators read in
  non local Contribution for L=           0  read in
    real space projection operators read in
  non local Contribution for L=           1  read in
    real space projection operators read in
  non local Contribution for L=           1  read in
    real space projection operators read in
    PAW grid and wavefunctions read in
 
   number of l-projection  operators is LMAX  =           6
   number of lm-projection operators is LMMAX =          18
 
 POTCAR:    PAW_PBE O 08Apr2002                   
   VRHFIN =O: s2p4                                                              
   LEXCH  = PE                                                                  
   EATOM  =   432.3788 eV,   31.7789 Ry                                         
                                                                                
   TITEL  = PAW_PBE O 08Apr2002                                                 
   LULTRA =        F    use ultrasoft PP ?                                      
   IUNSCR =        1    unscreen: 0-lin 1-nonlin 2-no                           
   RPACOR =    1.200    partial core radius                                     
   POMASS =   16.000; ZVAL   =    6.000    mass and valenz                      
   RCORE  =    1.520    outmost cutoff radius                                   
   RWIGS  =    1.550; RWIGS  =    0.820    wigner-seitz radius (au A)           
   ENMAX  =  400.000; ENMIN  =  300.000 eV                                      
   ICORE  =        2    local potential                                         
   LCOR   =        T    correct aug charges                                     
   LPAW   =        T    paw PP                                                  
   EAUG   =  605.392                                                            
   DEXC   =    0.000                                                            
   RMAX   =    1.553    core radius for proj-oper                               
   RAUG   =    1.300    factor for augmentation sphere                          
   RDEP   =    1.550    radius for radial grids                                 
   RDEPT  =    1.329    core radius for aug-charge                              
                                                                                
   Atomic configuration                                                         
    4 entries                                                                   
     n  l   j            E        occ.                                          
     1  0  0.50      -514.6923   2.0000                                         
     2  0  0.50       -23.9615   2.0000                                         
     2  1  0.50        -9.0305   4.0000                                         
     3  2  1.50        -9.5241   0.0000                                         
   Description                                                                  
     l       E           TYP  RCUT    TYP  RCUT                                 
     0    -23.9615318     23  1.200                                             
     0     -9.5240782     23  1.200                                             
     1     -9.0304911     23  1.520                                             
     1      8.1634956     23  1.520                                             
     2     -9.5240782      7  1.500                                             
  local pseudopotential read in
  partial core-charges read in
  partial kinetic energy density read in
  kinetic energy density of atom read in
  atomic valenz-charges read in
  non local Contribution for L=           0  read in
    real space projection operators read in
  non local Contribution for L=           0  read in
    real space projection operators read in
  non local Contribution for L=           1  read in
    real space projection operators read in
  non local Contribution for L=           1  read in
    real space projection operators read in
    PAW grid and wavefunctions read in
 
   number of l-projection  operators is LMAX  =           4
   number of lm-projection operators is LMMAX =           8
 
 Optimization of the real space projectors (new method)

 maximal supplied QI-value         = 13.42
 optimisation between [QCUT,QGAM] = [ 11.67, 23.35] = [ 38.16,152.62] Ry 
 Optimized for a Real-space Cutoff    1.63 Angstroem

   l    n(q)    QCUT    max X(q) W(low)/X(q) W(high)/X(q)  e(spline) 
   0     11    11.673    13.882    0.27E-04    0.79E-05    0.11E-06
   0     11    11.673    12.184    0.39E-04    0.13E-04    0.19E-06
   1     11    11.673     4.523    0.73E-05    0.76E-05    0.12E-06
   1     11    11.673     4.424    0.87E-05    0.13E-04    0.19E-06
   2     10    11.673    52.481    0.65E-04    0.36E-04    0.18E-06
   2     10    11.673    38.501    0.61E-04    0.33E-04    0.17E-06
   3     10    11.673    65.631    0.17E-03    0.14E-03    0.37E-06
   3     10    11.673    56.854    0.17E-03    0.14E-03    0.37E-06
 Optimization of the real space projectors (new method)

 maximal supplied QI-value         = 16.25
 optimisation between [QCUT,QGAM] = [ 11.54, 23.24] = [ 37.28,151.24] Ry 
 Optimized for a Real-space Cutoff    1.53 Angstroem

   l    n(q)    QCUT    max X(q) W(low)/X(q) W(high)/X(q)  e(spline) 
   2     10    11.539   110.144    0.12E-03    0.13E-03    0.25E-06
   2     10    11.539   103.200    0.12E-03    0.13E-03    0.25E-06
   0     11    11.539    68.437    0.46E-04    0.21E-04    0.32E-06
   0     11    11.539    33.971    0.37E-04    0.19E-04    0.29E-06
   1     10    11.539    17.065    0.51E-04    0.22E-04    0.13E-06
   1     10    11.539    12.540    0.41E-04    0.18E-04    0.11E-06
 Optimization of the real space projectors (new method)

 maximal supplied QI-value         = 16.25
 optimisation between [QCUT,QGAM] = [ 11.54, 23.24] = [ 37.28,151.24] Ry 
 Optimized for a Real-space Cutoff    1.45 Angstroem

   l    n(q)    QCUT    max X(q) W(low)/X(q) W(high)/X(q)  e(spline) 
   2      9    11.539    60.317    0.19E-03    0.47E-04    0.16E-06
   2      9    11.539    55.921    0.19E-03    0.48E-04    0.16E-06
   0     10    11.539    51.690    0.80E-04    0.50E-04    0.24E-06
   0     10    11.539    30.015    0.73E-04    0.45E-04    0.22E-06
   1     10    11.539    18.849    0.87E-04    0.16E-03    0.71E-07
   1     10    11.539    14.624    0.73E-04    0.13E-03    0.64E-07
 Optimization of the real space projectors (new method)

 maximal supplied QI-value         = 24.76
 optimisation between [QCUT,QGAM] = [ 11.64, 23.27] = [ 37.91,151.63] Ry 
 Optimized for a Real-space Cutoff    1.14 Angstroem

   l    n(q)    QCUT    max X(q) W(low)/X(q) W(high)/X(q)  e(spline) 
   0      8    11.635    20.381    0.10E-03    0.33E-03    0.24E-06
   0      8    11.635    15.268    0.11E-03    0.35E-03    0.26E-06
   1      7    11.635     5.964    0.24E-03    0.31E-03    0.30E-06
   1      7    11.635     5.382    0.22E-03    0.25E-03    0.26E-06
  PAW_PBE La 06Sep2000                  :
 energy of atom  1       EATOM= -865.9763
 kinetic energy error for atom=    0.0009 (will be added to EATOM!!)
  PAW_PBE Mn 06Sep2000                  :
 energy of atom  2       EATOM= -416.7541
 kinetic energy error for atom=    0.0024 (will be added to EATOM!!)
  PAW_PBE Ni 02Aug2007                  :
 energy of atom  3       EATOM=-1077.6739
 kinetic energy error for atom=    0.0030 (will be added to EATOM!!)
  PAW_PBE O 08Apr2002                   :
 energy of atom  4       EATOM= -432.3788
 kinetic energy error for atom=    0.0208 (will be added to EATOM!!)
 
 
 POSCAR: SCEL6_1_2_3_0_0_0/1                     
  positions in direct lattice
  velocities in cartesian coordinates
 exchange correlation table for  LEXCH =        8
   RHO(1)=    0.500       N(1)  =     2000
   RHO(2)=  100.500       N(2)  =     4000
 


--------------------------------------------------------------------------------------------------------


 ion  position               nearest neighbor table
   1  0.000  0.500  0.333-  27 2.76  26 2.76  14 2.76  17 2.76  14 2.76  17 2.76  21 2.77  21 2.77
                            23 2.77  23 2.77  30 2.77  29 2.77  12 3.37  12 3.37  11 3.37  11 3.37
   2  0.000  0.992  0.661-  29 2.64  20 2.71  20 2.71  13 2.72  13 2.72  25 2.75  26 2.75  22 2.81
                            22 2.81  16 2.81  16 2.81  11 3.31  11 3.31   7 3.38   7 3.38   8 3.39
   3  0.000  0.492  0.006-  30 2.64  21 2.71  21 2.71  18 2.72  18 2.72  28 2.75  27 2.75  19 2.81
                            19 2.81  15 2.81  15 2.81  12 3.31  12 3.31   9 3.38   9 3.38  10 3.39
   4  0.000  0.000  0.333-  27 2.76  26 2.76  14 2.76  17 2.76  14 2.76  17 2.76  24 2.77  24 2.77
                            20 2.77  20 2.77  30 2.77  29 2.77  12 3.37  12 3.37  11 3.37  11 3.37
   5  0.000  0.508  0.661-  29 2.64  23 2.71  23 2.71  13 2.72  13 2.72  25 2.75  26 2.75  19 2.81
                            19 2.81  16 2.81  16 2.81  11 3.31  11 3.31   7 3.38   7 3.38   8 3.39
   6  0.000  0.008  0.006-  30 2.64  24 2.71  24 2.71  18 2.72  18 2.72  28 2.75  27 2.75  22 2.81
                            22 2.81  15 2.81  15 2.81  12 3.31  12 3.31   9 3.38   9 3.38  10 3.39
   7  0.500  0.250  0.500-  20 1.90  23 1.90  14 1.91  16 1.94  26 1.96  26 1.96   5 3.38   5 3.38
                             2 3.38   2 3.38   1 3.38   4 3.38   4 3.38   1 3.38
   8  0.500  0.750  0.834-  13 1.92  15 1.93  19 1.95  22 1.95  25 1.96  25 1.96   2 3.39   2 3.39
                             5 3.39   5 3.39
   9  0.500  0.750  0.166-  21 1.90  24 1.90  17 1.91  15 1.94  27 1.96  27 1.96   3 3.38   3 3.38
                             6 3.38   6 3.38   1 3.38   4 3.38   4 3.38   1 3.38
  10  0.500  0.250  0.832-  18 1.92  16 1.93  19 1.95  22 1.95  28 1.96  28 1.96   3 3.39   3 3.39
                             6 3.39   6 3.39
  11  0.500  0.750  0.499-  29 1.96  29 1.96  17 1.97  13 1.99  20 2.00  23 2.00   2 3.31   2 3.31
                             5 3.31   5 3.31   1 3.37   4 3.37   4 3.37   1 3.37
  12  0.500  0.250  0.168-  30 1.96  30 1.96  14 1.97  18 1.99  21 2.00  24 2.00   3 3.31   3 3.31
                             6 3.31   6 3.31   1 3.37   4 3.37   4 3.37   1 3.37
  13  0.500  0.750  0.670-   8 1.92  11 1.99   2 2.72   2 2.72   5 2.72   5 2.72
  14  0.500  0.250  0.337-   7 1.91  12 1.97   1 2.76   4 2.76   1 2.76   4 2.76
  15  0.500  0.750  0.000-   8 1.93   9 1.94   3 2.81   6 2.81   3 2.81   6 2.81
  16  0.500  0.250  0.667-  10 1.93   7 1.94   5 2.81   5 2.81   2 2.81   2 2.81
  17  0.500  0.750  0.330-   9 1.91  11 1.97   1 2.76   4 2.76   1 2.76   4 2.76
  18  0.500  0.250  0.997-  10 1.92  12 1.99   3 2.72   6 2.72   3 2.72   6 2.72
  19  0.500  0.500  0.833-   8 1.95  10 1.95   5 2.81   5 2.81   3 2.81   3 2.81
  20  0.500  0.006  0.501-   7 1.90  11 2.00   2 2.71   2 2.71   4 2.77   4 2.77
  21  0.500  0.506  0.166-   9 1.90  12 2.00   3 2.71   3 2.71   1 2.77   1 2.77
  22  0.500  0.000  0.833-   8 1.95  10 1.95   2 2.81   2 2.81   6 2.81   6 2.81
  23  0.500  0.494  0.501-   7 1.90  11 2.00   5 2.71   5 2.71   1 2.77   1 2.77
  24  0.500  0.994  0.166-   9 1.90  12 2.00   6 2.71   6 2.71   4 2.77   4 2.77
  25  0.000  0.750  0.832-   8 1.96   8 1.96   2 2.75   5 2.75
  26  0.000  0.250  0.501-   7 1.96   7 1.96   5 2.75   2 2.75   4 2.76   1 2.76
  27  0.000  0.750  0.166-   9 1.96   9 1.96   3 2.75   6 2.75   4 2.76   1 2.76
  28  0.000  0.250  0.834-  10 1.96  10 1.96   3 2.75   6 2.75
  29  0.000  0.750  0.502-  11 1.96  11 1.96   2 2.64   5 2.64   4 2.77   1 2.77
  30  0.000  0.250  0.165-  12 1.96  12 1.96   3 2.64   6 2.64   4 2.77   1 2.77
 
  LATTYP: Found a simple orthorhombic cell.
 ALAT       =     3.9174295785
 B/A-ratio  =     1.9917337259
 C/A-ratio  =     2.9764007583
  
  Lattice vectors:
  
 A1 = (   3.9174295785,   0.0000000000,   0.0000000000)
 A2 = (   0.0000000000,   7.8024766103,   0.0000000000)
 A3 = (   0.0000000000,   0.0000000000,  11.6598403680)


Analysis of symmetry for initial positions (statically):
=====================================================================
 Subroutine PRICEL returns:
 Original cell was already a primitive cell.
 

 Routine SETGRP: Setting up the symmetry group for a 
 simple orthorhombic supercell.


 Subroutine GETGRP returns: Found  8 space group operations
 (whereof  2 operations were pure point group operations)
 out of a pool of  8 trial point group operations.


The static configuration has the point symmetry C_1h.
 The point group associated with its full space group is D_2h.


Analysis of symmetry for dynamics (positions and initial velocities):
=====================================================================
 Subroutine PRICEL returns:
 Original cell was already a primitive cell.
 

 Routine SETGRP: Setting up the symmetry group for a 
 simple orthorhombic supercell.


 Subroutine GETGRP returns: Found  8 space group operations
 (whereof  2 operations were pure point group operations)
 out of a pool of  8 trial point group operations.


The dynamic configuration has the point symmetry C_1h.
 The point group associated with its full space group is D_2h.


Analysis of structural, dynamic, and magnetic symmetry:
=====================================================================
 Subroutine PRICEL returns:
 Original cell was already a primitive cell.
 

 Routine SETGRP: Setting up the symmetry group for a 
 simple orthorhombic supercell.


 Subroutine GETGRP returns: Found  8 space group operations
 (whereof  2 operations were pure point group operations)
 out of a pool of  8 trial point group operations.


The magnetic configuration has the point symmetry C_1h.
 The point group associated with its full space group is D_2h.


 Subroutine INISYM returns: Found  8 space group operations
 (whereof  2 operations are pure point group operations),
 and found     1 'primitive' translations

 
 
 KPOINTS: Automatic mesh                          

Automatic generation of k-mesh.
 generate k-points for:    5    3    2
Space group operators:
 irot       det(A)        alpha          n_x          n_y          n_z        tau_x        tau_y        tau_z
    1     1.000000     0.000000     1.000000     0.000000     0.000000     0.000000     0.000000     0.000000
    2    -1.000000   180.000000     1.000000     0.000000     0.000000     0.000000     0.000000     0.000000
    3    -1.000000     0.000000     1.000000     0.000000     0.000000     0.000000     0.000000     0.666667
    4     1.000000   180.000000     0.000000     0.000000     1.000000     0.000000     0.500000     0.000000
    5    -1.000000   180.000000     0.000000     0.000000     1.000000     0.000000     0.500000     0.666667
    6     1.000000   180.000000     0.000000     1.000000     0.000000     0.000000     0.500000     0.666667
    7    -1.000000   180.000000     0.000000     1.000000     0.000000     0.000000     0.500000     0.000000
    8     1.000000   180.000000     1.000000     0.000000     0.000000     0.000000     0.000000     0.666667
 
 Subroutine IBZKPT returns following result:
 ===========================================
 
 Found     12 irreducible k-points:
 
 Following reciprocal coordinates:
            Coordinates               Weight
  0.000000  0.000000  0.000000      1.000000
  0.200000  0.000000  0.000000      2.000000
  0.400000  0.000000  0.000000      2.000000
  0.000000  0.333333  0.000000      2.000000
  0.200000  0.333333  0.000000      4.000000
  0.400000  0.333333  0.000000      4.000000
  0.000000  0.000000  0.500000      1.000000
  0.200000  0.000000  0.500000      2.000000
  0.400000  0.000000  0.500000      2.000000
  0.000000  0.333333  0.500000      2.000000
  0.200000  0.333333  0.500000      4.000000
  0.400000  0.333333  0.500000      4.000000
 
 Following cartesian coordinates:
            Coordinates               Weight
  0.000000  0.000000  0.000000      1.000000
  0.051054  0.000000  0.000000      2.000000
  0.102108  0.000000  0.000000      2.000000
  0.000000  0.042721  0.000000      2.000000
  0.051054  0.042721  0.000000      4.000000
  0.102108  0.042721  0.000000      4.000000
  0.000000  0.000000  0.042882      1.000000
  0.051054  0.000000  0.042882      2.000000
  0.102108  0.000000  0.042882      2.000000
  0.000000  0.042721  0.042882      2.000000
  0.051054  0.042721  0.042882      4.000000
  0.102108  0.042721  0.042882      4.000000
 
 TETIRR: Found     87 inequivalent tetrahedra from      180


--------------------------------------------------------------------------------------------------------




 Dimension of arrays:
   k-points           NKPTS =     12   k-points in BZ     NKDIM =     12   number of bands    NBANDS=    144
   number of dos      NEDOS =    301   number of ions     NIONS =     30
   non local maximal  LDIM  =      8   non local SUM 2l+1 LMDIM =     32
   total plane-waves  NPLWV = 162000
   max r-space proj   IRMAX =   8253   max aug-charges    IRDMAX=  23949
   dimension x,y,z NGX =    30 NGY =   60 NGZ =   90
   dimension x,y,z NGXF=    60 NGYF=  120 NGZF=  180
   support grid    NGXF=    60 NGYF=  120 NGZF=  180
   ions per type =               6   4   2  18
   NGX,Y,Z   is equivalent  to a cutoff of  12.73, 12.78, 12.83 a.u.
   NGXF,Y,Z  is equivalent  to a cutoff of  25.46, 25.57, 25.66 a.u.

 SYSTEM =  final                                   
 POSCAR =  SCEL6_1_2_3_0_0_0/1                     

 Startparameter for this run:
   NWRITE =      2    write-flag & timer
   PREC   = accura    normal or accurate (medium, high low for compatibility)
   ISTART =      0    job   : 0-new  1-cont  2-samecut
   ICHARG =      1    charge: 1-file 2-atom 10-const
   ISPIN  =      2    spin polarized calculation?
   LNONCOLLINEAR =      F non collinear calculations
   LSORBIT =      F    spin-orbit coupling
   INIWAV =      1    electr: 0-lowe 1-rand  2-diag
   LASPH  =      F    aspherical Exc in radial PAW
   METAGGA=      F    non-selfconsistent MetaGGA calc.

 Electronic Relaxation 1
   ENCUT  =  520.0 eV  38.22 Ry    6.18 a.u.   7.28 14.51 21.68*2*pi/ulx,y,z
   ENINI  =  520.0     initial cutoff
   ENAUG  =  605.4 eV  augmentation charge cutoff
   NELM   =    100;   NELMIN=  2; NELMDL= -5     # of ELM steps 
   EDIFF  = 0.1E-02   stopping-criterion for ELM
   LREAL  =      T    real-space projection
   NLSPLINE    = F    spline interpolate recip. space projectors
   LCOMPAT=      F    compatible to vasp.4.4
   GGA_COMPAT  = T    GGA compatible to vasp.4.4-vasp.4.6
   LMAXPAW     = -100 max onsite density
   LMAXMIX     =    6 max onsite mixed and CHGCAR
   VOSKOWN=      0    Vosko Wilk Nusair interpolation
   ROPT   =   -0.00025  -0.00025  -0.00025  -0.00025
 Ionic relaxation
   EDIFFG = 0.1E-01   stopping-criterion for IOM
   NSW    =      0    number of steps for IOM
   NBLOCK =      1;   KBLOCK =      1    inner block; outer block 
   IBRION =     -1    ionic relax: 0-MD 1-quasi-New 2-CG
   NFREE  =      0    steps in history (QN), initial steepest desc. (CG)
   ISIF   =      2    stress and relaxation
   IWAVPR =     10    prediction:  0-non 1-charg 2-wave 3-comb
   ISYM   =      2    0-nonsym 1-usesym 2-fastsym
   LCORR  =      T    Harris-Foulkes like correction to forces

   POTIM  = 0.5000    time-step for ionic-motion
   TEIN   =    0.0    initial temperature
   TEBEG  =    0.0;   TEEND  =   0.0 temperature during run
   SMASS  =  -3.00    Nose mass-parameter (am)
   estimated Nose-frequenzy (Omega)   =  0.10E-29 period in steps =****** mass=  -0.351E-27a.u.
   SCALEE = 1.0000    scale energy and forces
   NPACO  =    256;   APACO  = 16.0  distance and # of slots for P.C.
   PSTRESS=    0.0 pullay stress

  Mass of Ions in am
   POMASS = 138.90 54.94 58.69 16.00
  Ionic Valenz
   ZVAL   =  11.00  7.00 10.00  6.00
  Atomic Wigner-Seitz radii
   RWIGS  =  -1.00 -1.00 -1.00 -1.00
  virtual crystal weights 
   VCA    =   1.00  1.00  1.00  1.00
   NELECT =     222.0000    total number of electrons
   NUPDOWN=      -1.0000    fix difference up-down

 DOS related values:
   EMIN   =  10.00;   EMAX   =-10.00  energy-range for DOS
   EFERMI =   0.00
   ISMEAR =    -5;   SIGMA  =   0.05  broadening in eV -4-tet -1-fermi 0-gaus

 Electronic relaxation 2 (details)
   IALGO  =     68    algorithm
   LDIAG  =      T    sub-space diagonalisation (order eigenvalues)
   LSUBROT=      F    optimize rotation matrix (better conditioning)
   TURBO    =      0    0=normal 1=particle mesh
   IRESTART =      0    0=no restart 2=restart with 2 vectors
   NREBOOT  =      0    no. of reboots
   NMIN     =      0    reboot dimension
   EREF     =   0.00    reference energy to select bands
   IMIX   =      4    mixing-type and parameters
     AMIX     =   0.40;   BMIX     =  1.00
     AMIX_MAG =   1.60;   BMIX_MAG =  1.00
     AMIN     =   0.10
     WC   =   100.;   INIMIX=   1;  MIXPRE=   1;  MAXMIX= -45

 Intra band minimization:
   WEIMIN = 0.0000     energy-eigenvalue tresh-hold
   EBREAK =  0.17E-05  absolut break condition
   DEPER  =   0.30     relativ break condition  

   TIME   =   0.40     timestep for ELM

  volume/ion in A,a.u.               =      11.88        80.17
  Fermi-wavevector in a.u.,A,eV,Ry     =   1.398139  2.642100 26.596574  1.954793
  Thomas-Fermi vector in A             =   2.521327
 
 Write flags
   LWAVE        =      F    write WAVECAR
   LDOWNSAMPLE  =      F    k-point downsampling of WAVECAR
   LCHARG       =      T    write CHGCAR
   LVTOT        =      F    write LOCPOT, total local potential
   LVHAR        =      F    write LOCPOT, Hartree potential only
   LELF         =      F    write electronic localiz. function (ELF)
   LORBIT       =     11    0 simple, 1 ext, 2 COOP (PROOUT), +10 PAW based schemes


 Dipole corrections
   LMONO  =      F    monopole corrections only (constant potential shift)
   LDIPOL =      F    correct potential (dipole corrections)
   IDIPOL =      0    1-x, 2-y, 3-z, 4-all directions 
   EPSILON=  1.0000000 bulk dielectric constant

 LDA+U is selected, type is set to LDAUTYPE =  2
   angular momentum for each species LDAUL =     0    2    2    0
   U (eV)           for each species LDAUU =   0.0  3.9  6.2  0.0
   J (eV)           for each species LDAUJ =   0.0  0.0  0.0  0.0
 Exchange correlation treatment:
   GGA     =    --    GGA type
   LEXCH   =     8    internal setting for exchange type
   VOSKOWN=      0    Vosko Wilk Nusair interpolation
   LHFCALC =     F    Hartree Fock is set to
   LHFONE  =     F    Hartree Fock one center treatment
   AEXX    =    0.0000 exact exchange contribution

 Linear response parameters
   LEPSILON=     F    determine dielectric tensor
   LRPA    =     F    only Hartree local field effects (RPA)
   LNABLA  =     F    use nabla operator in PAW spheres
   LVEL    =     F    velocity operator in full k-point grid
   LINTERFAST=   F  fast interpolation
   KINTER  =     0    interpolate to denser k-point grid
   CSHIFT  =0.1000    complex shift for real part using Kramers Kronig
   OMEGAMAX=  -1.0    maximum frequency
   DEG_THRESHOLD= 0.2000000E-02 threshold for treating states as degnerate
   RTIME   =   -0.100 relaxation time in fs
  (WPLASMAI=    0.000 imaginary part of plasma frequency in eV, 0.658/RTIME)
   DFIELD  = 0.0000000 0.0000000 0.0000000 field for delta impulse in time
 
 Orbital magnetization related:
   ORBITALMAG=     F  switch on orbital magnetization
   LCHIMAG   =     F  perturbation theory with respect to B field
   DQ        =  0.001000  dq finite difference perturbation B field
   LLRAUG    =     F  two centre corrections for induced B field



--------------------------------------------------------------------------------------------------------


 Static calculation
 charge density and potential will be updated during run
 spin polarized calculation
 RMM-DIIS sequential band-by-band and
  variant of blocked Davidson during initial phase
 perform sub-space diagonalisation
    before iterative eigenvector-optimisation
 modified Broyden-mixing scheme, WC =      100.0
 initial mixing is a Kerker type mixing with AMIX =  0.4000 and BMIX =      1.0000
 Hartree-type preconditioning will be used
 using additional bands           33
 real space projection scheme for non local part
 use partial core corrections
 calculate Harris-corrections to forces 
   (improved forces if not selfconsistent)
 use gradient corrections 
 use of overlap-Matrix (Vanderbilt PP)
 Fermi weights with tetrahedron method with Bloechl corrections


--------------------------------------------------------------------------------------------------------


  energy-cutoff  :      520.00
  volume of cell :      356.39
      direct lattice vectors                 reciprocal lattice vectors
     3.917429579  0.000000000  0.000000000     0.255269426  0.000000000  0.000000000
     0.000000000  7.802476610  0.000000000     0.000000000  0.128164434  0.000000000
     0.000000000  0.000000000 11.659840368     0.000000000  0.000000000  0.085764467

  length of vectors
     3.917429579  7.802476610 11.659840368     0.255269426  0.128164434  0.085764467


 
 k-points in units of 2pi/SCALE and weight: Automatic mesh                          
   0.00000000  0.00000000  0.00000000       0.033
   0.05105389  0.00000000  0.00000000       0.067
   0.10210777  0.00000000  0.00000000       0.067
   0.00000000  0.04272148  0.00000000       0.067
   0.05105389  0.04272148  0.00000000       0.133
   0.10210777  0.04272148  0.00000000       0.133
   0.00000000  0.00000000  0.04288223       0.033
   0.05105389  0.00000000  0.04288223       0.067
   0.10210777  0.00000000  0.04288223       0.067
   0.00000000  0.04272148  0.04288223       0.067
   0.05105389  0.04272148  0.04288223       0.133
   0.10210777  0.04272148  0.04288223       0.133
 
 k-points in reciprocal lattice and weights: Automatic mesh                          
   0.00000000  0.00000000  0.00000000       0.033
   0.20000000  0.00000000  0.00000000       0.067
   0.40000000  0.00000000  0.00000000       0.067
   0.00000000  0.33333333  0.00000000       0.067
   0.20000000  0.33333333  0.00000000       0.133
   0.40000000  0.33333333  0.00000000       0.133
   0.00000000  0.00000000  0.50000000       0.033
   0.20000000  0.00000000  0.50000000       0.067
   0.40000000  0.00000000  0.50000000       0.067
   0.00000000  0.33333333  0.50000000       0.067
   0.20000000  0.33333333  0.50000000       0.133
   0.40000000  0.33333333  0.50000000       0.133
 
 position of ions in fractional coordinates (direct lattice) 
   0.00000000  0.50000000  0.33333330
   0.00000000  0.99151847  0.66100505
   0.00000000  0.49151847  0.00566165
   0.00000000  0.00000000  0.33333330
   0.00000000  0.50848153  0.66100505
   0.00000000  0.00848153  0.00566165
   0.50000000  0.25000000  0.50021732
   0.50000000  0.75000000  0.83425199
   0.50000000  0.75000000  0.16644938
   0.50000000  0.25000000  0.83241461
   0.50000000  0.75000000  0.49908069
   0.50000000  0.25000000  0.16758601
   0.50000000  0.75000000  0.66997338
   0.50000000  0.25000000  0.33668142
   0.50000000  0.75000000  0.00005447
   0.50000000  0.25000000  0.66661223
   0.50000000  0.75000000  0.32998518
   0.50000000  0.25000000  0.99669332
   0.50000000  0.50000000  0.83333330
   0.50000000  0.00621283  0.50098491
   0.50000000  0.50621283  0.16568179
   0.50000000  0.00000000  0.83333330
   0.50000000  0.49378717  0.50098491
   0.50000000  0.99378717  0.16568179
   0.00000000  0.75000000  0.83243892
   0.00000000  0.25000000  0.50092613
   0.00000000  0.75000000  0.16574057
   0.00000000  0.25000000  0.83422768
   0.00000000  0.75000000  0.50211739
   0.00000000  0.25000000  0.16454931
 
 position of ions in cartesian coordinates  (Angst):
   0.00000000  3.90123831  3.88661307
   0.00000000  7.73629966  7.70721331
   0.00000000  3.83506136  0.06601399
   0.00000000  0.00000000  3.88661307
   0.00000000  3.96741525  7.70721331
   0.00000000  0.06617695  0.06601399
   1.95871479  1.95061915  5.83245410
   1.95871479  5.85185746  9.72724500
   1.95871479  5.85185746  1.94077320
   1.95871479  1.95061915  9.70582151
   1.95871479  5.85185746  5.81920123
   1.95871479  1.95061915  1.95402607
   1.95871479  5.85185746  7.81178271
   1.95871479  1.95061915  3.92565165
   1.95871479  5.85185746  0.00063508
   1.95871479  1.95061915  7.77259222
   1.95871479  5.85185746  3.84757448
   1.95871479  1.95061915 11.62128496
   1.95871479  3.90123831  9.71653325
   1.95871479  0.04847543  5.84140403
   1.95871479  3.94971373  1.93182327
   1.95871479  0.00000000  9.71653325
   1.95871479  3.85276288  5.84140403
   1.95871479  7.75400118  1.93182327
   0.00000000  5.85185746  9.70610496
   0.00000000  1.95061915  5.84071875
   0.00000000  5.85185746  1.93250855
   0.00000000  1.95061915  9.72696154
   0.00000000  5.85185746  5.85460859
   0.00000000  1.95061915  1.91861872
 


--------------------------------------------------------------------------------------------------------


 k-point  1 :   0.0000 0.0000 0.0000  plane waves:    9581
 k-point  2 :   0.2000 0.0000 0.0000  plane waves:    9601
 k-point  3 :   0.4000 0.0000 0.0000  plane waves:    9618
 k-point  4 :   0.0000 0.3333 0.0000  plane waves:    9623
 k-point  5 :   0.2000 0.3333 0.0000  plane waves:    9601
 k-point  6 :   0.4000 0.3333 0.0000  plane waves:    9595
 k-point  7 :   0.0000 0.0000 0.5000  plane waves:    9648
 k-point  8 :   0.2000 0.0000 0.5000  plane waves:    9604
 k-point  9 :   0.4000 0.0000 0.5000  plane waves:    9600
 k-point 10 :   0.0000 0.3333 0.5000  plane waves:    9572
 k-point 11 :   0.2000 0.3333 0.5000  plane waves:    9596
 k-point 12 :   0.4000 0.3333 0.5000  plane waves:    9588

 maximum and minimum number of plane-waves per node :       979      941

 maximum number of plane-waves:      9648
 maximum index in each direction: 
   IXMAX=    7   IYMAX=   14   IZMAX=   21
   IXMIN=   -7   IYMIN=  -14   IZMIN=  -22


 real space projection operators:
  total allocation   :      20363.19 KBytes
  max/ min on nodes  :       2115.19       2002.94


 parallel 3D FFT for wavefunctions:
    minimum data exchange during FFTs selected (reduces bandwidth)
 parallel 3D FFT for charge:
    minimum data exchange during FFTs selected (reduces bandwidth)


 total amount of memory used by VASP MPI-rank0    75983. kBytes
=======================================================================

   base      :      30000. kBytes
   nonlr-proj:       6827. kBytes
   fftplans  :       2694. kBytes
   grid      :       7580. kBytes
   one-center:        294. kBytes
   wavefun   :      28588. kBytes
 
     INWAV:  cpu time    0.0000: real time    0.0001
 Broyden mixing: mesh for mixing (old mesh)
   NGX = 15   NGY = 29   NGZ = 43
  (NGX  = 60   NGY  =120   NGZ  =180)
  gives a total of  18705 points

 initial charge density was supplied:
 charge density of overlapping atoms calculated
 number of electron     222.0000000 magnetization      22.0000000
 keeping initial charge density in first step


--------------------------------------------------------------------------------------------------------


 Maximum index for non-local projection operator          827
 Maximum index for augmentation-charges          978 (set IRDMAX)


--------------------------------------------------------------------------------------------------------


 First call to EWALD:  gamma=   0.250
 Maximum number of real-space cells 5x 3x 2
 Maximum number of reciprocal cells 2x 3x 4

    FEWALD:  cpu time    0.0017: real time    0.0017


--------------------------------------- Iteration      1(   1)  ---------------------------------------


    POTLOK:  cpu time    0.0762: real time    0.0780
    SETDIJ:  cpu time    0.0157: real time    0.0158
atom =   1  type =  1  l = 0
 
 onsite density matrix
 
spin component  1
 
  1.0989
 
spin component  2
 
  1.0989
 
 occupancies and eigenvectors
 
  o =  1.0989  v =  1.0000  0.0000      0.0000  0.0000
  o =  1.0989  v =  0.0000  1.0000      0.0000  0.0000
atom =   2  type =  1  l = 0
 
 onsite density matrix
 
spin component  1
 
  1.0989
 
spin component  2
 
  1.0989
 
 occupancies and eigenvectors
 
  o =  1.0989  v =  1.0000  0.0000      0.0000  0.0000
  o =  1.0989  v =  0.0000  1.0000      0.0000  0.0000
atom =   3  type =  1  l = 0
 
 onsite density matrix
 
spin component  1
 
  1.0989
 
spin component  2
 
  1.0989
 
 occupancies and eigenvectors
 
  o =  1.0989  v =  1.0000  0.0000      0.0000  0.0000
  o =  1.0989  v =  0.0000  1.0000      0.0000  0.0000
atom =   4  type =  1  l = 0
 
 onsite density matrix
 
spin component  1
 
  1.0989
 
spin component  2
 
  1.0989
 
 occupancies and eigenvectors
 
  o =  1.0989  v =  1.0000  0.0000      0.0000  0.0000
  o =  1.0989  v =  0.0000  1.0000      0.0000  0.0000
atom =   5  type =  1  l = 0
 
 onsite density matrix
 
spin component  1
 
  1.0989
 
spin component  2
 
  1.0989
 
 occupancies and eigenvectors
 
  o =  1.0989  v =  1.0000  0.0000      0.0000  0.0000
  o =  1.0989  v =  0.0000  1.0000      0.0000  0.0000
atom =   6  type =  1  l = 0
 
 onsite density matrix
 
spin component  1
 
  1.0989
 
spin component  2
 
  1.0989
 
 occupancies and eigenvectors
 
  o =  1.0989  v =  1.0000  0.0000      0.0000  0.0000
  o =  1.0989  v =  0.0000  1.0000      0.0000  0.0000
atom =   7  type =  2  l = 2
 
 onsite density matrix
 
spin component  1
 
  0.8272  0.0000  0.0000  0.0000  0.0000
  0.0000  0.8272  0.0000  0.0000  0.0000
  0.0000  0.0000  0.8272  0.0000  0.0000
  0.0000  0.0000  0.0000  0.8272  0.0000
  0.0000  0.0000  0.0000  0.0000  0.8272
 
spin component  2
 
  0.2256  0.0000  0.0000  0.0000  0.0000
  0.0000  0.2256  0.0000  0.0000  0.0000
  0.0000  0.0000  0.2256  0.0000  0.0000
  0.0000  0.0000  0.0000  0.2256  0.0000
  0.0000  0.0000  0.0000  0.0000  0.2256
 
 occupancies and eigenvectors
 
  o =  0.2256  v =  0.0000  0.0000  0.0000  0.0000  0.0000  0.0000  0.0000  1.0000  0.0000  0.0000      0.0000  0.0000  0.0000  0.0000  0.0000  0.0000  0.0000  0.0000  0.0000  0.0000
  o =  0.2256  v =  0.0000  0.0000  0.0000  0.0000  0.0000  1.0000  0.0000  0.0000  0.0000  0.0000      0.0000  0.0000  0.0000  0.0000  0.0000  0.0000  0.0000  0.0000  0.0000  0.0000
  o =  0.2256  v =  0.0000  0.0000  0.0000  0.0000  0.0000  0.0000  1.0000  0.0000  0.0000  0.0000      0.0000  0.0000  0.0000  0.0000  0.0000  0.0000  0.0000  0.0000  0.0000  0.0000
  o =  0.2256  v =  0.0000  0.0000  0.0000  0.0000  0.0000  0.0000  0.0000  0.0000  1.0000  0.0000      0.0000  0.0000  0.0000  0.0000  0.0000  0.0000  0.0000  0.0000  0.0000  0.0000
  o =  0.2256  v =  0.0000  0.0000  0.0000  0.0000  0.0000  0.0000  0.0000  0.0000  0.0000  1.0000      0.0000  0.0000  0.0000  0.0000  0.0000  0.0000  0.0000  0.0000  0.0000  0.0000
  o =  0.8272  v =  0.0000  1.0000  0.0000  0.0000  0.0000  0.0000  0.0000  0.0000  0.0000  0.0000      0.0000  0.0000  0.0000  0.0000  0.0000  0.0000  0.0000  0.0000  0.0000  0.0000
  o =  0.8272  v =  0.0000  0.0000  1.0000  0.0000  0.0000  0.0000  0.0000  0.0000  0.0000  0.0000      0.0000  0.0000  0.0000  0.0000  0.0000  0.0000  0.0000  0.0000  0.0000  0.0000
  o =  0.8272  v =  1.0000  0.0000  0.0000  0.0000  0.0000  0.0000  0.0000  0.0000  0.0000  0.0000      0.0000  0.0000  0.0000  0.0000  0.0000  0.0000  0.0000  0.0000  0.0000  0.0000
  o =  0.8272  v =  0.0000  0.0000  0.0000  1.0000  0.0000  0.0000  0.0000  0.0000  0.0000  0.0000      0.0000  0.0000  0.0000  0.0000  0.0000  0.0000  0.0000  0.0000  0.0000  0.0000
  o =  0.8272  v =  0.0000  0.0000  0.0000  0.0000  1.0000  0.0000  0.0000  0.0000  0.0000  0.0000      0.0000  0.0000  0.0000  0.0000  0.0000  0.0000  0.0000  0.0000  0.0000  0.0000
atom =   8  type =  2  l = 2
 
 onsite density matrix
 
spin component  1
 
  0.8272  0.0000  0.0000  0.0000  0.0000
  0.0000  0.8272  0.0000  0.0000  0.0000
  0.0000  0.0000  0.8272  0.0000  0.0000
  0.0000  0.0000  0.0000  0.8272  0.0000
  0.0000  0.0000  0.0000  0.0000  0.8272
 
spin component  2
 
  0.2256  0.0000  0.0000  0.0000  0.0000
  0.0000  0.2256  0.0000  0.0000  0.0000
  0.0000  0.0000  0.2256  0.0000  0.0000
  0.0000  0.0000  0.0000  0.2256  0.0000
  0.0000  0.0000  0.0000  0.0000  0.2256
 
 occupancies and eigenvectors
 
  o =  0.2256  v =  0.0000  0.0000  0.0000  0.0000  0.0000  0.0000  0.0000  1.0000  0.0000  0.0000      0.0000  0.0000  0.0000  0.0000  0.0000  0.0000  0.0000  0.0000  0.0000  0.0000
  o =  0.2256  v =  0.0000  0.0000  0.0000  0.0000  0.0000  1.0000  0.0000  0.0000  0.0000  0.0000      0.0000  0.0000  0.0000  0.0000  0.0000  0.0000  0.0000  0.0000  0.0000  0.0000
  o =  0.2256  v =  0.0000  0.0000  0.0000  0.0000  0.0000  0.0000  1.0000  0.0000  0.0000  0.0000      0.0000  0.0000  0.0000  0.0000  0.0000  0.0000  0.0000  0.0000  0.0000  0.0000
  o =  0.2256  v =  0.0000  0.0000  0.0000  0.0000  0.0000  0.0000  0.0000  0.0000  1.0000  0.0000      0.0000  0.0000  0.0000  0.0000  0.0000  0.0000  0.0000  0.0000  0.0000  0.0000
  o =  0.2256  v =  0.0000  0.0000  0.0000  0.0000  0.0000  0.0000  0.0000  0.0000  0.0000  1.0000      0.0000  0.0000  0.0000  0.0000  0.0000  0.0000  0.0000  0.0000  0.0000  0.0000
  o =  0.8272  v =  0.0000  1.0000  0.0000  0.0000  0.0000  0.0000  0.0000  0.0000  0.0000  0.0000      0.0000  0.0000  0.0000  0.0000  0.0000  0.0000  0.0000  0.0000  0.0000  0.0000
  o =  0.8272  v =  0.0000  0.0000  1.0000  0.0000  0.0000  0.0000  0.0000  0.0000  0.0000  0.0000      0.0000  0.0000  0.0000  0.0000  0.0000  0.0000  0.0000  0.0000  0.0000  0.0000
  o =  0.8272  v =  1.0000  0.0000  0.0000  0.0000  0.0000  0.0000  0.0000  0.0000  0.0000  0.0000      0.0000  0.0000  0.0000  0.0000  0.0000  0.0000  0.0000  0.0000  0.0000  0.0000
  o =  0.8272  v =  0.0000  0.0000  0.0000  1.0000  0.0000  0.0000  0.0000  0.0000  0.0000  0.0000      0.0000  0.0000  0.0000  0.0000  0.0000  0.0000  0.0000  0.0000  0.0000  0.0000
  o =  0.8272  v =  0.0000  0.0000  0.0000  0.0000  1.0000  0.0000  0.0000  0.0000  0.0000  0.0000      0.0000  0.0000  0.0000  0.0000  0.0000  0.0000  0.0000  0.0000  0.0000  0.0000
atom =   9  type =  2  l = 2
 
 onsite density matrix
 
spin component  1
 
  0.8272  0.0000  0.0000  0.0000  0.0000
  0.0000  0.8272  0.0000  0.0000  0.0000
  0.0000  0.0000  0.8272  0.0000  0.0000
  0.0000  0.0000  0.0000  0.8272  0.0000
  0.0000  0.0000  0.0000  0.0000  0.8272
 
spin component  2
 
  0.2256  0.0000  0.0000  0.0000  0.0000
  0.0000  0.2256  0.0000  0.0000  0.0000
  0.0000  0.0000  0.2256  0.0000  0.0000
  0.0000  0.0000  0.0000  0.2256  0.0000
  0.0000  0.0000  0.0000  0.0000  0.2256
 
 occupancies and eigenvectors
 
  o =  0.2256  v =  0.0000  0.0000  0.0000  0.0000  0.0000  0.0000  0.0000  1.0000  0.0000  0.0000      0.0000  0.0000  0.0000  0.0000  0.0000  0.0000  0.0000  0.0000  0.0000  0.0000
  o =  0.2256  v =  0.0000  0.0000  0.0000  0.0000  0.0000  1.0000  0.0000  0.0000  0.0000  0.0000      0.0000  0.0000  0.0000  0.0000  0.0000  0.0000  0.0000  0.0000  0.0000  0.0000
  o =  0.2256  v =  0.0000  0.0000  0.0000  0.0000  0.0000  0.0000  1.0000  0.0000  0.0000  0.0000      0.0000  0.0000  0.0000  0.0000  0.0000  0.0000  0.0000  0.0000  0.0000  0.0000
  o =  0.2256  v =  0.0000  0.0000  0.0000  0.0000  0.0000  0.0000  0.0000  0.0000  1.0000  0.0000      0.0000  0.0000  0.0000  0.0000  0.0000  0.0000  0.0000  0.0000  0.0000  0.0000
  o =  0.2256  v =  0.0000  0.0000  0.0000  0.0000  0.0000  0.0000  0.0000  0.0000  0.0000  1.0000      0.0000  0.0000  0.0000  0.0000  0.0000  0.0000  0.0000  0.0000  0.0000  0.0000
  o =  0.8272  v =  0.0000  1.0000  0.0000  0.0000  0.0000  0.0000  0.0000  0.0000  0.0000  0.0000      0.0000  0.0000  0.0000  0.0000  0.0000  0.0000  0.0000  0.0000  0.0000  0.0000
  o =  0.8272  v =  0.0000  0.0000  1.0000  0.0000  0.0000  0.0000  0.0000  0.0000  0.0000  0.0000      0.0000  0.0000  0.0000  0.0000  0.0000  0.0000  0.0000  0.0000  0.0000  0.0000
  o =  0.8272  v =  1.0000  0.0000  0.0000  0.0000  0.0000  0.0000  0.0000  0.0000  0.0000  0.0000      0.0000  0.0000  0.0000  0.0000  0.0000  0.0000  0.0000  0.0000  0.0000  0.0000
  o =  0.8272  v =  0.0000  0.0000  0.0000  1.0000  0.0000  0.0000  0.0000  0.0000  0.0000  0.0000      0.0000  0.0000  0.0000  0.0000  0.0000  0.0000  0.0000  0.0000  0.0000  0.0000
  o =  0.8272  v =  0.0000  0.0000  0.0000  0.0000  1.0000  0.0000  0.0000  0.0000  0.0000  0.0000      0.0000  0.0000  0.0000  0.0000  0.0000  0.0000  0.0000  0.0000  0.0000  0.0000
atom =  10  type =  2  l = 2
 
 onsite density matrix
 
spin component  1
 
  0.8272  0.0000  0.0000  0.0000  0.0000
  0.0000  0.8272  0.0000  0.0000  0.0000
  0.0000  0.0000  0.8272  0.0000  0.0000
  0.0000  0.0000  0.0000  0.8272  0.0000
  0.0000  0.0000  0.0000  0.0000  0.8272
 
spin component  2
 
  0.2256  0.0000  0.0000  0.0000  0.0000
  0.0000  0.2256  0.0000  0.0000  0.0000
  0.0000  0.0000  0.2256  0.0000  0.0000
  0.0000  0.0000  0.0000  0.2256  0.0000
  0.0000  0.0000  0.0000  0.0000  0.2256
 
 occupancies and eigenvectors
 
  o =  0.2256  v =  0.0000  0.0000  0.0000  0.0000  0.0000  0.0000  0.0000  1.0000  0.0000  0.0000      0.0000  0.0000  0.0000  0.0000  0.0000  0.0000  0.0000  0.0000  0.0000  0.0000
  o =  0.2256  v =  0.0000  0.0000  0.0000  0.0000  0.0000  1.0000  0.0000  0.0000  0.0000  0.0000      0.0000  0.0000  0.0000  0.0000  0.0000  0.0000  0.0000  0.0000  0.0000  0.0000
  o =  0.2256  v =  0.0000  0.0000  0.0000  0.0000  0.0000  0.0000  1.0000  0.0000  0.0000  0.0000      0.0000  0.0000  0.0000  0.0000  0.0000  0.0000  0.0000  0.0000  0.0000  0.0000
  o =  0.2256  v =  0.0000  0.0000  0.0000  0.0000  0.0000  0.0000  0.0000  0.0000  1.0000  0.0000      0.0000  0.0000  0.0000  0.0000  0.0000  0.0000  0.0000  0.0000  0.0000  0.0000
  o =  0.2256  v =  0.0000  0.0000  0.0000  0.0000  0.0000  0.0000  0.0000  0.0000  0.0000  1.0000      0.0000  0.0000  0.0000  0.0000  0.0000  0.0000  0.0000  0.0000  0.0000  0.0000
  o =  0.8272  v =  0.0000  1.0000  0.0000  0.0000  0.0000  0.0000  0.0000  0.0000  0.0000  0.0000      0.0000  0.0000  0.0000  0.0000  0.0000  0.0000  0.0000  0.0000  0.0000  0.0000
  o =  0.8272  v =  0.0000  0.0000  1.0000  0.0000  0.0000  0.0000  0.0000  0.0000  0.0000  0.0000      0.0000  0.0000  0.0000  0.0000  0.0000  0.0000  0.0000  0.0000  0.0000  0.0000
  o =  0.8272  v =  1.0000  0.0000  0.0000  0.0000  0.0000  0.0000  0.0000  0.0000  0.0000  0.0000      0.0000  0.0000  0.0000  0.0000  0.0000  0.0000  0.0000  0.0000  0.0000  0.0000
  o =  0.8272  v =  0.0000  0.0000  0.0000  1.0000  0.0000  0.0000  0.0000  0.0000  0.0000  0.0000      0.0000  0.0000  0.0000  0.0000  0.0000  0.0000  0.0000  0.0000  0.0000  0.0000
  o =  0.8272  v =  0.0000  0.0000  0.0000  0.0000  1.0000  0.0000  0.0000  0.0000  0.0000  0.0000      0.0000  0.0000  0.0000  0.0000  0.0000  0.0000  0.0000  0.0000  0.0000  0.0000
atom =  11  type =  3  l = 2
 
 onsite density matrix
 
spin component  1
 
  1.1008  0.0000  0.0000  0.0000  0.0000
  0.0000  1.1008  0.0000  0.0000  0.0000
  0.0000  0.0000  1.1008  0.0000  0.0000
  0.0000  0.0000  0.0000  1.1008  0.0000
  0.0000  0.0000  0.0000  0.0000  1.1008
 
spin component  2
 
  0.5927  0.0000  0.0000  0.0000  0.0000
  0.0000  0.5927  0.0000  0.0000  0.0000
  0.0000  0.0000  0.5927  0.0000  0.0000
  0.0000  0.0000  0.0000  0.5927  0.0000
  0.0000  0.0000  0.0000  0.0000  0.5927
 
 occupancies and eigenvectors
 
  o =  0.5927  v =  0.0000  0.0000  0.0000  0.0000  0.0000  1.0000  0.0000  0.0000  0.0000  0.0000      0.0000  0.0000  0.0000  0.0000  0.0000  0.0000  0.0000  0.0000  0.0000  0.0000
  o =  0.5927  v =  0.0000  0.0000  0.0000  0.0000  0.0000  0.0000  1.0000  0.0000  0.0000  0.0000      0.0000  0.0000  0.0000  0.0000  0.0000  0.0000  0.0000  0.0000  0.0000  0.0000
  o =  0.5927  v =  0.0000  0.0000  0.0000  0.0000  0.0000  0.0000  0.0000  1.0000  0.0000  0.0000      0.0000  0.0000  0.0000  0.0000  0.0000  0.0000  0.0000  0.0000  0.0000  0.0000
  o =  0.5927  v =  0.0000  0.0000  0.0000  0.0000  0.0000  0.0000  0.0000  0.0000  1.0000  0.0000      0.0000  0.0000  0.0000  0.0000  0.0000  0.0000  0.0000  0.0000  0.0000  0.0000
  o =  0.5927  v =  0.0000  0.0000  0.0000  0.0000  0.0000  0.0000  0.0000  0.0000  0.0000  1.0000      0.0000  0.0000  0.0000  0.0000  0.0000  0.0000  0.0000  0.0000  0.0000  0.0000
  o =  1.1008  v =  1.0000  0.0000  0.0000  0.0000  0.0000  0.0000  0.0000  0.0000  0.0000  0.0000      0.0000  0.0000  0.0000  0.0000  0.0000  0.0000  0.0000  0.0000  0.0000  0.0000
  o =  1.1008  v =  0.0000  1.0000  0.0000  0.0000  0.0000  0.0000  0.0000  0.0000  0.0000  0.0000      0.0000  0.0000  0.0000  0.0000  0.0000  0.0000  0.0000  0.0000  0.0000  0.0000
  o =  1.1008  v =  0.0000  0.0000  1.0000  0.0000  0.0000  0.0000  0.0000  0.0000  0.0000  0.0000      0.0000  0.0000  0.0000  0.0000  0.0000  0.0000  0.0000  0.0000  0.0000  0.0000
  o =  1.1008  v =  0.0000  0.0000  0.0000  1.0000  0.0000  0.0000  0.0000  0.0000  0.0000  0.0000      0.0000  0.0000  0.0000  0.0000  0.0000  0.0000  0.0000  0.0000  0.0000  0.0000
  o =  1.1008  v =  0.0000  0.0000  0.0000  0.0000  1.0000  0.0000  0.0000  0.0000  0.0000  0.0000      0.0000  0.0000  0.0000  0.0000  0.0000  0.0000  0.0000  0.0000  0.0000  0.0000
atom =  12  type =  3  l = 2
 
 onsite density matrix
 
spin component  1
 
  1.1008  0.0000  0.0000  0.0000  0.0000
  0.0000  1.1008  0.0000  0.0000  0.0000
  0.0000  0.0000  1.1008  0.0000  0.0000
  0.0000  0.0000  0.0000  1.1008  0.0000
  0.0000  0.0000  0.0000  0.0000  1.1008
 
spin component  2
 
  0.5927  0.0000  0.0000  0.0000  0.0000
  0.0000  0.5927  0.0000  0.0000  0.0000
  0.0000  0.0000  0.5927  0.0000  0.0000
  0.0000  0.0000  0.0000  0.5927  0.0000
  0.0000  0.0000  0.0000  0.0000  0.5927
 
 occupancies and eigenvectors
 
  o =  0.5927  v =  0.0000  0.0000  0.0000  0.0000  0.0000  1.0000  0.0000  0.0000  0.0000  0.0000      0.0000  0.0000  0.0000  0.0000  0.0000  0.0000  0.0000  0.0000  0.0000  0.0000
  o =  0.5927  v =  0.0000  0.0000  0.0000  0.0000  0.0000  0.0000  1.0000  0.0000  0.0000  0.0000      0.0000  0.0000  0.0000  0.0000  0.0000  0.0000  0.0000  0.0000  0.0000  0.0000
  o =  0.5927  v =  0.0000  0.0000  0.0000  0.0000  0.0000  0.0000  0.0000  1.0000  0.0000  0.0000      0.0000  0.0000  0.0000  0.0000  0.0000  0.0000  0.0000  0.0000  0.0000  0.0000
  o =  0.5927  v =  0.0000  0.0000  0.0000  0.0000  0.0000  0.0000  0.0000  0.0000  1.0000  0.0000      0.0000  0.0000  0.0000  0.0000  0.0000  0.0000  0.0000  0.0000  0.0000  0.0000
  o =  0.5927  v =  0.0000  0.0000  0.0000  0.0000  0.0000  0.0000  0.0000  0.0000  0.0000  1.0000      0.0000  0.0000  0.0000  0.0000  0.0000  0.0000  0.0000  0.0000  0.0000  0.0000
  o =  1.1008  v =  1.0000  0.0000  0.0000  0.0000  0.0000  0.0000  0.0000  0.0000  0.0000  0.0000      0.0000  0.0000  0.0000  0.0000  0.0000  0.0000  0.0000  0.0000  0.0000  0.0000
  o =  1.1008  v =  0.0000  1.0000  0.0000  0.0000  0.0000  0.0000  0.0000  0.0000  0.0000  0.0000      0.0000  0.0000  0.0000  0.0000  0.0000  0.0000  0.0000  0.0000  0.0000  0.0000
  o =  1.1008  v =  0.0000  0.0000  1.0000  0.0000  0.0000  0.0000  0.0000  0.0000  0.0000  0.0000      0.0000  0.0000  0.0000  0.0000  0.0000  0.0000  0.0000  0.0000  0.0000  0.0000
  o =  1.1008  v =  0.0000  0.0000  0.0000  1.0000  0.0000  0.0000  0.0000  0.0000  0.0000  0.0000      0.0000  0.0000  0.0000  0.0000  0.0000  0.0000  0.0000  0.0000  0.0000  0.0000
  o =  1.1008  v =  0.0000  0.0000  0.0000  0.0000  1.0000  0.0000  0.0000  0.0000  0.0000  0.0000      0.0000  0.0000  0.0000  0.0000  0.0000  0.0000  0.0000  0.0000  0.0000  0.0000
atom =  13  type =  4  l = 0
 
 onsite density matrix
 
spin component  1
 
  0.8190
 
spin component  2
 
  0.8190
 
 occupancies and eigenvectors
 
  o =  0.8190  v =  1.0000  0.0000      0.0000  0.0000
  o =  0.8190  v =  0.0000  1.0000      0.0000  0.0000
atom =  14  type =  4  l = 0
 
 onsite density matrix
 
spin component  1
 
  0.8190
 
spin component  2
 
  0.8190
 
 occupancies and eigenvectors
 
  o =  0.8190  v =  1.0000  0.0000      0.0000  0.0000
  o =  0.8190  v =  0.0000  1.0000      0.0000  0.0000
atom =  15  type =  4  l = 0
 
 onsite density matrix
 
spin component  1
 
  0.8190
 
spin component  2
 
  0.8190
 
 occupancies and eigenvectors
 
  o =  0.8190  v =  1.0000  0.0000      0.0000  0.0000
  o =  0.8190  v =  0.0000  1.0000      0.0000  0.0000
atom =  16  type =  4  l = 0
 
 onsite density matrix
 
spin component  1
 
  0.8190
 
spin component  2
 
  0.8190
 
 occupancies and eigenvectors
 
  o =  0.8190  v =  1.0000  0.0000      0.0000  0.0000
  o =  0.8190  v =  0.0000  1.0000      0.0000  0.0000
atom =  17  type =  4  l = 0
 
 onsite density matrix
 
spin component  1
 
  0.8190
 
spin component  2
 
  0.8190
 
 occupancies and eigenvectors
 
  o =  0.8190  v =  1.0000  0.0000      0.0000  0.0000
  o =  0.8190  v =  0.0000  1.0000      0.0000  0.0000
atom =  18  type =  4  l = 0
 
 onsite density matrix
 
spin component  1
 
  0.8190
 
spin component  2
 
  0.8190
 
 occupancies and eigenvectors
 
  o =  0.8190  v =  1.0000  0.0000      0.0000  0.0000
  o =  0.8190  v =  0.0000  1.0000      0.0000  0.0000
atom =  19  type =  4  l = 0
 
 onsite density matrix
 
spin component  1
 
  0.8190
 
spin component  2
 
  0.8190
 
 occupancies and eigenvectors
 
  o =  0.8190  v =  1.0000  0.0000      0.0000  0.0000
  o =  0.8190  v =  0.0000  1.0000      0.0000  0.0000
atom =  20  type =  4  l = 0
 
 onsite density matrix
 
spin component  1
 
  0.8190
 
spin component  2
 
  0.8190
 
 occupancies and eigenvectors
 
  o =  0.8190  v =  1.0000  0.0000      0.0000  0.0000
  o =  0.8190  v =  0.0000  1.0000      0.0000  0.0000
atom =  21  type =  4  l = 0
 
 onsite density matrix
 
spin component  1
 
  0.8190
 
spin component  2
 
  0.8190
 
 occupancies and eigenvectors
 
  o =  0.8190  v =  1.0000  0.0000      0.0000  0.0000
  o =  0.8190  v =  0.0000  1.0000      0.0000  0.0000
atom =  22  type =  4  l = 0
 
 onsite density matrix
 
spin component  1
 
  0.8190
 
spin component  2
 
  0.8190
 
 occupancies and eigenvectors
 
  o =  0.8190  v =  1.0000  0.0000      0.0000  0.0000
  o =  0.8190  v =  0.0000  1.0000      0.0000  0.0000
atom =  23  type =  4  l = 0
 
 onsite density matrix
 
spin component  1
 
  0.8190
 
spin component  2
 
  0.8190
 
 occupancies and eigenvectors
 
  o =  0.8190  v =  1.0000  0.0000      0.0000  0.0000
  o =  0.8190  v =  0.0000  1.0000      0.0000  0.0000
atom =  24  type =  4  l = 0
 
 onsite density matrix
 
spin component  1
 
  0.8190
 
spin component  2
 
  0.8190
 
 occupancies and eigenvectors
 
  o =  0.8190  v =  1.0000  0.0000      0.0000  0.0000
  o =  0.8190  v =  0.0000  1.0000      0.0000  0.0000
atom =  25  type =  4  l = 0
 
 onsite density matrix
 
spin component  1
 
  0.8190
 
spin component  2
 
  0.8190
 
 occupancies and eigenvectors
 
  o =  0.8190  v =  1.0000  0.0000      0.0000  0.0000
  o =  0.8190  v =  0.0000  1.0000      0.0000  0.0000
atom =  26  type =  4  l = 0
 
 onsite density matrix
 
spin component  1
 
  0.8190
 
spin component  2
 
  0.8190
 
 occupancies and eigenvectors
 
  o =  0.8190  v =  1.0000  0.0000      0.0000  0.0000
  o =  0.8190  v =  0.0000  1.0000      0.0000  0.0000
atom =  27  type =  4  l = 0
 
 onsite density matrix
 
spin component  1
 
  0.8190
 
spin component  2
 
  0.8190
 
 occupancies and eigenvectors
 
  o =  0.8190  v =  1.0000  0.0000      0.0000  0.0000
  o =  0.8190  v =  0.0000  1.0000      0.0000  0.0000
atom =  28  type =  4  l = 0
 
 onsite density matrix
 
spin component  1
 
  0.8190
 
spin component  2
 
  0.8190
 
 occupancies and eigenvectors
 
  o =  0.8190  v =  1.0000  0.0000      0.0000  0.0000
  o =  0.8190  v =  0.0000  1.0000      0.0000  0.0000
atom =  29  type =  4  l = 0
 
 onsite density matrix
 
spin component  1
 
  0.8190
 
spin component  2
 
  0.8190
 
 occupancies and eigenvectors
 
  o =  0.8190  v =  1.0000  0.0000      0.0000  0.0000
  o =  0.8190  v =  0.0000  1.0000      0.0000  0.0000
atom =  30  type =  4  l = 0
 
 onsite density matrix
 
spin component  1
 
  0.8190
 
spin component  2
 
  0.8190
 
 occupancies and eigenvectors
 
  o =  0.8190  v =  1.0000  0.0000      0.0000  0.0000
  o =  0.8190  v =  0.0000  1.0000      0.0000  0.0000
     EDDAV:  cpu time    4.0036: real time    4.0200
 BZINTS: Fermi energy: 31.528768;222.000000 electrons
         Band energy:3323.680449;  BLOECHL correction: -0.142018
       DOS:  cpu time    0.0355: real time    0.0359
    --------------------------------------------
      LOOP:  cpu time    4.1310: real time    4.1498

 eigenvalue-minimisations  :  7424
 total energy-change (2. order) : 0.3575589E+04  (-0.7741588E+04)
 number of electron     222.0000000 magnetization      22.0000000
 augmentation part      222.0000000 magnetization      22.0000000

 Free energy of the ion-electron system (eV)
  ---------------------------------------------------
  alpha Z        PSCENC =       973.40788208
  Ewald energy   TEWEN  =    -15030.27513493
  -Hartree energ DENC   =     -3176.96266621
  -exchange      EXHF   =         0.00000000
  -V(xc)+E(xc)   XCENC  =       710.46545119
  PAW double counting   =     13644.53670636   -13669.90867429
  entropy T*S    EENTRO =         0.00000000
  eigenvalues    EBANDS =      3323.68044910
  atomic energy  EATOM  =     16800.64461370
  Solvation  Ediel_sol  =         0.00000000
  ---------------------------------------------------
  free energy    TOTEN  =      3575.58862699 eV

  energy without entropy =     3575.58862699  energy(sigma->0) =     3575.58862699


--------------------------------------------------------------------------------------------------------




--------------------------------------- Iteration      1(   2)  ---------------------------------------


     EDDAV:  cpu time    4.1146: real time    4.1301
 BZINTS: Fermi energy: 16.413773;222.000000 electrons
         Band energy: 995.715756;  BLOECHL correction: -0.024236
       DOS:  cpu time    0.0363: real time    0.0366
    --------------------------------------------
      LOOP:  cpu time    4.1510: real time    4.1667

 eigenvalue-minimisations  :  7712
 total energy-change (2. order) :-0.2327965E+04  (-0.2096305E+04)
 number of electron     222.0000000 magnetization      22.0000000
 augmentation part      222.0000000 magnetization      22.0000000

 Free energy of the ion-electron system (eV)
  ---------------------------------------------------
  alpha Z        PSCENC =       973.40788208
  Ewald energy   TEWEN  =    -15030.27513493
  -Hartree energ DENC   =     -3176.96266621
  -exchange      EXHF   =         0.00000000
  -V(xc)+E(xc)   XCENC  =       710.46545119
  PAW double counting   =     13644.53670636   -13669.90867429
  entropy T*S    EENTRO =         0.00000000
  eigenvalues    EBANDS =       995.71575574
  atomic energy  EATOM  =     16800.64461370
  Solvation  Ediel_sol  =         0.00000000
  ---------------------------------------------------
  free energy    TOTEN  =      1247.62393363 eV

  energy without entropy =     1247.62393363  energy(sigma->0) =     1247.62393363


--------------------------------------------------------------------------------------------------------




--------------------------------------- Iteration      1(   3)  ---------------------------------------


     EDDAV:  cpu time    4.2529: real time    4.2768
 BZINTS: Fermi energy: 12.079172;222.000000 electrons
         Band energy:  14.962793;  BLOECHL correction: -0.038349
       DOS:  cpu time    0.0385: real time    0.0386
    --------------------------------------------
      LOOP:  cpu time    4.2915: real time    4.3154

 eigenvalue-minimisations  :  8000
 total energy-change (2. order) :-0.9807530E+03  (-0.8847317E+03)
 number of electron     222.0000000 magnetization      22.0000000
 augmentation part      222.0000000 magnetization      22.0000000

 Free energy of the ion-electron system (eV)
  ---------------------------------------------------
  alpha Z        PSCENC =       973.40788208
  Ewald energy   TEWEN  =    -15030.27513493
  -Hartree energ DENC   =     -3176.96266621
  -exchange      EXHF   =         0.00000000
  -V(xc)+E(xc)   XCENC  =       710.46545119
  PAW double counting   =     13644.53670636   -13669.90867429
  entropy T*S    EENTRO =         0.00000000
  eigenvalues    EBANDS =        14.96279278
  atomic energy  EATOM  =     16800.64461370
  Solvation  Ediel_sol  =         0.00000000
  ---------------------------------------------------
  free energy    TOTEN  =       266.87097068 eV

  energy without entropy =      266.87097068  energy(sigma->0) =      266.87097068


--------------------------------------------------------------------------------------------------------




--------------------------------------- Iteration      1(   4)  ---------------------------------------


     EDDAV:  cpu time    5.5399: real time    5.5599
 BZINTS: Fermi energy: 11.326618;222.000000 electrons
         Band energy:-414.310668;  BLOECHL correction: -0.006457
       DOS:  cpu time    0.0391: real time    0.0394
    --------------------------------------------
      LOOP:  cpu time    5.5789: real time    5.5992

 eigenvalue-minimisations  : 11120
 total energy-change (2. order) :-0.4292735E+03  (-0.4041750E+03)
 number of electron     222.0000000 magnetization      22.0000000
 augmentation part      222.0000000 magnetization      22.0000000

 Free energy of the ion-electron system (eV)
  ---------------------------------------------------
  alpha Z        PSCENC =       973.40788208
  Ewald energy   TEWEN  =    -15030.27513493
  -Hartree energ DENC   =     -3176.96266621
  -exchange      EXHF   =         0.00000000
  -V(xc)+E(xc)   XCENC  =       710.46545119
  PAW double counting   =     13644.53670636   -13669.90867429
  entropy T*S    EENTRO =         0.00000000
  eigenvalues    EBANDS =      -414.31066849
  atomic energy  EATOM  =     16800.64461370
  Solvation  Ediel_sol  =         0.00000000
  ---------------------------------------------------
  free energy    TOTEN  =      -162.40249060 eV

  energy without entropy =     -162.40249060  energy(sigma->0) =     -162.40249060


--------------------------------------------------------------------------------------------------------




--------------------------------------- Iteration      1(   5)  ---------------------------------------


     EDDAV:  cpu time    6.1294: real time    6.1514
 BZINTS: Fermi energy: 10.921060;222.000000 electrons
         Band energy:-507.504550;  BLOECHL correction: -0.098293
       DOS:  cpu time    0.0367: real time    0.0368
    CHARGE:  cpu time    0.1764: real time    0.1769
    MIXING:  cpu time    0.0034: real time    0.0040
    --------------------------------------------
      LOOP:  cpu time    6.3459: real time    6.3692

 eigenvalue-minimisations  : 12528
 total energy-change (2. order) :-0.9319388E+02  (-0.9001051E+02)
 number of electron     222.0000069 magnetization      20.3279122
 augmentation part       26.0867022 magnetization      14.4632783

 Broyden mixing:
  rms(total) = 0.70718E+01    rms(broyden)= 0.70708E+01
  rms(prec ) = 0.79295E+01
  weight for this iteration     100.00

 Free energy of the ion-electron system (eV)
  ---------------------------------------------------
  alpha Z        PSCENC =       973.40788208
  Ewald energy   TEWEN  =    -15030.27513493
  -Hartree energ DENC   =     -3176.96266621
  -exchange      EXHF   =         0.00000000
  -V(xc)+E(xc)   XCENC  =       710.46545119
  PAW double counting   =     13644.53670636   -13669.90867429
  entropy T*S    EENTRO =         0.00000000
  eigenvalues    EBANDS =      -507.50454983
  atomic energy  EATOM  =     16800.64461370
  Solvation  Ediel_sol  =         0.00000000
  ---------------------------------------------------
  free energy    TOTEN  =      -255.59637193 eV

  energy without entropy =     -255.59637193  energy(sigma->0) =     -255.59637193


--------------------------------------------------------------------------------------------------------




--------------------------------------- Iteration      1(   6)  ---------------------------------------


    POTLOK:  cpu time    0.0731: real time    0.0744
    SETDIJ:  cpu time    0.0136: real time    0.0136
atom =   1  type =  1  l = 0
 
 onsite density matrix
 
spin component  1
 
  1.0561
 
spin component  2
 
  1.0559
 
 occupancies and eigenvectors
 
  o =  1.0559  v =  0.0000  1.0000      0.0000  0.0000
  o =  1.0561  v =  1.0000  0.0000      0.0000  0.0000
atom =   2  type =  1  l = 0
 
 onsite density matrix
 
spin component  1
 
  1.0566
 
spin component  2
 
  1.0563
 
 occupancies and eigenvectors
 
  o =  1.0563  v =  0.0000  1.0000      0.0000  0.0000
  o =  1.0566  v =  1.0000  0.0000      0.0000  0.0000
atom =   3  type =  1  l = 0
 
 onsite density matrix
 
spin component  1
 
  1.0566
 
spin component  2
 
  1.0563
 
 occupancies and eigenvectors
 
  o =  1.0563  v =  0.0000  1.0000      0.0000  0.0000
  o =  1.0566  v =  1.0000  0.0000      0.0000  0.0000
atom =   4  type =  1  l = 0
 
 onsite density matrix
 
spin component  1
 
  1.0561
 
spin component  2
 
  1.0559
 
 occupancies and eigenvectors
 
  o =  1.0559  v =  0.0000  1.0000      0.0000  0.0000
  o =  1.0561  v =  1.0000  0.0000      0.0000  0.0000
atom =   5  type =  1  l = 0
 
 onsite density matrix
 
spin component  1
 
  1.0566
 
spin component  2
 
  1.0563
 
 occupancies and eigenvectors
 
  o =  1.0563  v =  0.0000  1.0000      0.0000  0.0000
  o =  1.0566  v =  1.0000  0.0000      0.0000  0.0000
atom =   6  type =  1  l = 0
 
 onsite density matrix
 
spin component  1
 
  1.0566
 
spin component  2
 
  1.0563
 
 occupancies and eigenvectors
 
  o =  1.0563  v =  0.0000  1.0000      0.0000  0.0000
  o =  1.0566  v =  1.0000  0.0000      0.0000  0.0000
atom =   7  type =  2  l = 2
 
 onsite density matrix
 
spin component  1
 
  0.9551 -0.0000  0.0000  0.0000 -0.0000
 -0.0000  0.9518 -0.0000  0.0000  0.0000
  0.0000 -0.0000  0.3808 -0.0000 -0.0352
  0.0000  0.0000 -0.0000  0.9611 -0.0000
 -0.0000  0.0000 -0.0352 -0.0000  0.3987
 
spin component  2
 
  0.0330  0.0000 -0.0000 -0.0000  0.0000
  0.0000  0.0380  0.0000 -0.0000 -0.0000
 -0.0000  0.0000  0.4304 -0.0000  0.0254
 -0.0000 -0.0000 -0.0000  0.0261  0.0000
  0.0000 -0.0000  0.0254  0.0000  0.4179
 
 occupancies and eigenvectors
 
  o =  0.0261  v =  0.0000  0.0000  0.0000  0.0000  0.0000  0.0000 -0.0000  0.0000  1.0000 -0.0000      0.0000  0.0000  0.0000  0.0000  0.0000  0.0000  0.0000  0.0000  0.0000  0.0000
  o =  0.0330  v =  0.0000  0.0000  0.0000  0.0000  0.0000  1.0000  0.0000  0.0000  0.0000  0.0000      0.0000  0.0000  0.0000  0.0000  0.0000  0.0000  0.0000  0.0000  0.0000  0.0000
  o =  0.0380  v =  0.0000  0.0000  0.0000  0.0000  0.0000  0.0000 -1.0000  0.0000 -0.0000  0.0000      0.0000  0.0000  0.0000  0.0000  0.0000  0.0000  0.0000  0.0000  0.0000  0.0000
  o =  0.3535  v =  0.0000 -0.0000  0.7895  0.0000  0.6137  0.0000  0.0000  0.0000  0.0000  0.0000      0.0000  0.0000  0.0000  0.0000  0.0000  0.0000  0.0000  0.0000  0.0000  0.0000
  o =  0.3980  v =  0.0000  0.0000  0.0000  0.0000  0.0000  0.0000  0.0000 -0.6168  0.0000  0.7871      0.0000  0.0000  0.0000  0.0000  0.0000  0.0000  0.0000  0.0000  0.0000  0.0000
  o =  0.4260  v =  0.0000 -0.0000 -0.6137 -0.0000  0.7895  0.0000  0.0000  0.0000  0.0000  0.0000      0.0000  0.0000  0.0000  0.0000  0.0000  0.0000  0.0000  0.0000  0.0000  0.0000
  o =  0.4502  v =  0.0000  0.0000  0.0000  0.0000  0.0000  0.0000  0.0000  0.7871  0.0000  0.6168      0.0000  0.0000  0.0000  0.0000  0.0000  0.0000  0.0000  0.0000  0.0000  0.0000
  o =  0.9518  v =  0.0000  1.0000 -0.0000  0.0000  0.0000  0.0000  0.0000  0.0000  0.0000  0.0000      0.0000  0.0000  0.0000  0.0000  0.0000  0.0000  0.0000  0.0000  0.0000  0.0000
  o =  0.9551  v =  1.0000  0.0000  0.0000  0.0000  0.0000  0.0000  0.0000  0.0000  0.0000  0.0000      0.0000  0.0000  0.0000  0.0000  0.0000  0.0000  0.0000  0.0000  0.0000  0.0000
  o =  0.9611  v =  0.0000 -0.0000 -0.0000  1.0000  0.0000  0.0000  0.0000  0.0000  0.0000  0.0000      0.0000  0.0000  0.0000  0.0000  0.0000  0.0000  0.0000  0.0000  0.0000  0.0000
atom =   8  type =  2  l = 2
 
 onsite density matrix
 
spin component  1
 
  0.9654  0.0000  0.0000  0.0000 -0.0000
  0.0000  0.9508  0.0000 -0.0000  0.0000
  0.0000  0.0000  0.3764  0.0000 -0.0098
  0.0000 -0.0000  0.0000  0.9451  0.0000
 -0.0000  0.0000 -0.0098  0.0000  0.4495
 
spin component  2
 
  0.0191  0.0000 -0.0000 -0.0000  0.0000
  0.0000  0.0322 -0.0000  0.0000 -0.0000
 -0.0000 -0.0000  0.4300  0.0000  0.0068
 -0.0000  0.0000  0.0000  0.0348  0.0000
  0.0000 -0.0000  0.0068  0.0000  0.3817
 
[...]
  0.000   0.000   0.000  -0.000   0.000   0.000  -0.001   0.000   0.000   0.000  -0.000   0.000   0.000   0.000   0.000   0.000
  0.000  -0.000  -0.000   0.000   0.000   0.000   0.000   0.000  -0.000   0.000  -0.000   0.000   0.000  -0.000   0.000  -0.000
  0.000   0.000  -0.000  -0.000   0.000  -0.000  -0.000   0.000   0.000   0.000   0.000   0.000  -0.000   0.000   0.000  -0.000
  0.000   0.000   0.000   0.000  -0.000   0.000   0.000  -0.000   0.000   0.000   0.000   0.000   0.000   0.000  -0.000   0.000
  0.000  -0.000   0.000  -0.000   0.000  -0.001   0.001  -0.000   0.000   0.000  -0.000   0.000   0.000  -0.000   0.000   0.000
  0.000   0.000   0.000   0.000  -0.001   0.000   0.000   0.002   0.000   0.000   0.000   0.000   0.000  -0.000   0.000   0.000
  0.000  -0.000   0.000  -0.000   0.000  -0.001  -0.000   0.000   0.000   0.000   0.000   0.000   0.000   0.000   0.000   0.000
 -0.000   0.000   0.000  -0.000  -0.000  -0.000   0.001   0.000   0.000   0.000  -0.000  -0.000   0.000   0.000   0.000   0.000
 -0.000   0.000   0.000   0.000   0.000   0.000   0.000  -0.001   0.000   0.000   0.000  -0.000  -0.000  -0.000   0.000  -0.000
  0.000   0.000   0.000   0.000  -0.000   0.001   0.000   0.000   0.000   0.000   0.000   0.000  -0.000   0.000   0.000  -0.000
 -0.000   0.000   0.000   0.000  -0.000   0.000  -0.000   0.001   0.000  -0.000   0.000   0.000   0.000  -0.000  -0.000  -0.000


------------------------ aborting loop because EDIFF is reached ----------------------------------------


 


 total charge     
 
# of ion       s       p       d       f       tot
--------------------------------------------------
    1        1.998   5.696   0.475   0.184   8.353
    2        1.999   5.697   0.487   0.188   8.372
    3        1.999   5.697   0.487   0.188   8.372
    4        1.998   5.696   0.475   0.184   8.353
    5        1.999   5.697   0.487   0.188   8.372
    6        2.000   5.697   0.487   0.188   8.373
    7        0.341   0.532   4.870   0.000   5.743
    8        0.325   0.495   4.873   0.000   5.692
    9        0.341   0.532   4.871   0.000   5.743
   10        0.325   0.495   4.873   0.000   5.693
   11        0.390   0.556   8.323   0.000   9.269
   12        0.390   0.556   8.323   0.000   9.269
   13        1.561   3.457   0.000   0.000   5.018
   14        1.561   3.453   0.000   0.000   5.014
   15        1.561   3.466   0.000   0.000   5.027
   16        1.561   3.466   0.000   0.000   5.027
   17        1.561   3.453   0.000   0.000   5.014
   18        1.561   3.457   0.000   0.000   5.018
   19        1.565   3.454   0.000   0.000   5.019
   20        1.561   3.459   0.000   0.000   5.020
   21        1.561   3.459   0.000   0.000   5.020
   22        1.565   3.454   0.000   0.000   5.019
   23        1.561   3.459   0.000   0.000   5.020
   24        1.561   3.459   0.000   0.000   5.020
   25        1.564   3.451   0.000   0.000   5.016
   26        1.566   3.456   0.000   0.000   5.022
   27        1.566   3.456   0.000   0.000   5.022
   28        1.564   3.451   0.000   0.000   5.016
   29        1.554   3.456   0.000   0.000   5.010
   30        1.554   3.456   0.000   0.000   5.010
--------------------------------------------------
tot         42.214  99.569  39.032   1.122 181.937

 


 magnetization (x)
 
# of ion       s       p       d       f       tot
--------------------------------------------------
    1        0.001   0.001   0.008   0.004   0.013
    2        0.001   0.001   0.010   0.005   0.016
    3        0.001   0.001   0.010   0.005   0.016
    4        0.001   0.001   0.008   0.004   0.013
    5        0.001   0.001   0.010   0.005   0.016
    6        0.001   0.001   0.010   0.005   0.016
    7        0.026   0.031   3.470   0.000   3.528
    8        0.024   0.025   3.633   0.000   3.681
    9        0.026   0.031   3.471   0.000   3.528
   10        0.024   0.025   3.633   0.000   3.682
   11        0.012   0.002   1.701   0.000   1.714
   12        0.012   0.002   1.701   0.000   1.714
   13        0.005  -0.032   0.000   0.000  -0.027
   14        0.005  -0.022   0.000   0.000  -0.017
   15        0.002  -0.020   0.000   0.000  -0.018
   16        0.002  -0.020   0.000   0.000  -0.018
   17        0.005  -0.022   0.000   0.000  -0.017
   18        0.005  -0.032   0.000   0.000  -0.027
   19        0.006  -0.033   0.000   0.000  -0.027
   20        0.005  -0.008   0.000   0.000  -0.002
   21        0.005  -0.007   0.000   0.000  -0.002
   22        0.006  -0.033   0.000   0.000  -0.027
   23        0.005  -0.007   0.000   0.000  -0.002
   24        0.005  -0.007   0.000   0.000  -0.002
   25        0.005  -0.044   0.000   0.000  -0.038
   26        0.007  -0.046   0.000   0.000  -0.040
   27        0.007  -0.046   0.000   0.000  -0.040
   28        0.005  -0.044   0.000   0.000  -0.038
   29        0.006   0.024   0.000   0.000   0.030
   30        0.006   0.024   0.000   0.000   0.030
--------------------------------------------------
tot          0.219  -0.255  17.664   0.028  17.655

 
    CHARGE:  cpu time    0.1725: real time    0.1730
    FORLOC:  cpu time    0.0114: real time    0.0114
    FORNL :  cpu time    1.0664: real time    1.0697
    STRESS:  cpu time    3.1661: real time    3.1767
    FORCOR:  cpu time    0.0854: real time    0.0856
    FORHAR:  cpu time    0.0188: real time    0.0189
    MIXING:  cpu time    0.0052: real time    0.0052
    OFIELD:  cpu time    0.0001: real time    0.0001

  FORCE on cell =-STRESS in cart. coord.  units (eV):
  Direction    XX          YY          ZZ          XY          YZ          ZX
  --------------------------------------------------------------------------------------
  Alpha Z   973.40788   973.40788   973.40788
  Ewald   -4979.87906 -5013.61659 -5036.83377    -0.00000     0.00000    -0.00000
  Hartree  1136.52749  1084.87394  1048.73062    -0.00000    -0.00000    -0.00000
  E(xc)   -1025.63990 -1025.84106 -1025.63590    -0.00000     0.00000    -0.00000
  Local    -691.95165  -601.37246  -535.85570     0.00000     0.00000     0.00000
  n-local   402.43262   402.88007   403.72835     0.71372     0.00190     0.00179
  augment   346.49442   343.98973   341.92487     0.00000    -0.00000    -0.00000
  Kinetic  3838.56762  3835.62298  3829.05571    -1.88724    -0.00504    -0.00124
  Fock        0.00000     0.00000     0.00000     0.00000     0.00000     0.00000
  -------------------------------------------------------------------------------------
  Total      -0.04058    -0.05552    -1.47794     0.00000     0.00000     0.00000
  in kB      -0.18244    -0.24958    -6.64420     0.00000     0.00000     0.00000
  external pressure =       -2.36 kB  Pullay stress =        0.00 kB


 VOLUME and BASIS-vectors are now :
 -----------------------------------------------------------------------------
  energy-cutoff  :      520.00
  volume of cell :      356.39
      direct lattice vectors                 reciprocal lattice vectors
     3.917429579  0.000000000  0.000000000     0.255269426  0.000000000  0.000000000
     0.000000000  7.802476610  0.000000000     0.000000000  0.128164434  0.000000000
     0.000000000  0.000000000 11.659840368     0.000000000  0.000000000  0.085764467

  length of vectors
     3.917429579  7.802476610 11.659840368     0.255269426  0.128164434  0.085764467


 FORCES acting on ions
    electron-ion (+dipol)            ewald-force                    non-local-force                 convergence-correction
 -----------------------------------------------------------------------------------------------
   -.255E-14 -.218E-04 0.674E-03   -.338E-13 0.236E-04 0.310E-03   0.000E+00 0.108E-18 0.000E+00   0.904E-14 -.180E-07 -.142E-04
   -.547E-15 -.625E+02 -.946E+02   -.119E-13 0.617E+02 0.940E+02   0.000E+00 0.672E+00 0.637E+00   0.491E-14 0.427E-01 0.569E-01
   -.790E-14 -.625E+02 0.946E+02   0.565E-14 0.617E+02 -.940E+02   0.000E+00 0.672E+00 -.637E+00   0.167E-14 0.427E-01 -.569E-01
   -.690E-14 0.218E-04 0.674E-03   -.491E-13 -.236E-04 0.310E-03   0.000E+00 0.542E-19 -.271E-19   0.144E-13 0.180E-07 -.142E-04
   -.196E-14 0.625E+02 -.946E+02   -.158E-13 -.617E+02 0.940E+02   0.136E-19 -.672E+00 0.637E+00   0.123E-13 -.427E-01 0.569E-01
   0.960E-15 0.625E+02 0.946E+02   -.314E-13 -.617E+02 -.940E+02   0.000E+00 -.672E+00 -.637E+00   0.107E-13 -.427E-01 -.569E-01
   0.581E-13 -.264E-12 -.384E+02   0.242E-13 0.616E-13 0.378E+02   0.000E+00 0.169E-20 0.477E+00   0.141E-13 0.214E-12 0.506E-01
   0.400E-13 -.304E-12 -.276E+02   -.127E-13 0.544E-13 0.273E+02   -.339E-20 0.000E+00 0.247E+00   0.168E-13 -.138E-12 0.209E-01
   0.433E-13 0.105E-11 0.384E+02   -.541E-14 0.114E-12 -.378E+02   0.000E+00 -.106E-21 -.477E+00   0.224E-13 -.562E-13 -.506E-01
   0.708E-13 0.121E-11 0.276E+02   0.106E-13 -.394E-13 -.273E+02   -.678E-20 0.296E-20 -.247E+00   0.308E-13 0.172E-12 -.209E-01
   0.299E-12 0.186E-11 -.137E+02   0.190E-13 -.421E-13 0.132E+02   -.148E-20 0.000E+00 0.415E+00   0.674E-13 -.221E-12 0.410E-01
   0.323E-12 0.188E-11 0.137E+02   0.718E-14 -.308E-13 -.132E+02   0.000E+00 -.339E-20 -.415E+00   0.859E-13 0.129E-12 -.410E-01
   0.127E-12 -.729E-13 -.768E+02   0.103E-13 0.714E-13 0.720E+02   0.339E-20 0.000E+00 0.491E+01   -.660E-14 -.102E-12 0.573E-01
   0.123E-12 0.350E-12 -.445E+02   0.100E-14 -.783E-13 0.395E+02   0.000E+00 -.678E-20 0.510E+01   -.573E-14 0.142E-12 0.544E-01
   0.113E-12 0.104E-11 0.335E+02   -.833E-14 -.467E-13 -.336E+02   0.136E-19 0.339E-20 0.106E+00   0.349E-14 -.446E-13 -.430E-02
   0.117E-12 -.197E-12 -.335E+02   0.125E-13 -.110E-12 0.336E+02   0.678E-20 0.000E+00 -.106E+00   0.161E-13 0.199E-12 0.431E-02
   0.125E-12 0.525E-12 0.445E+02   0.918E-14 -.353E-13 -.395E+02   0.000E+00 -.678E-20 -.510E+01   0.175E-13 -.663E-13 -.544E-01
   0.118E-12 -.262E-12 0.768E+02   -.140E-13 -.159E-13 -.720E+02   0.000E+00 -.339E-19 -.491E+01   0.927E-14 0.116E-12 -.573E-01
   0.117E-12 0.109E-04 0.652E-03   0.953E-14 -.115E-04 0.211E-03   0.106E-21 0.000E+00 0.136E-19   0.202E-13 0.453E-08 0.658E-06
   0.110E-12 -.450E+02 -.180E+02   0.375E-14 0.395E+02 0.176E+02   -.867E-18 0.540E+01 0.360E+00   0.242E-13 0.571E-01 0.309E-01
   0.118E-12 -.450E+02 0.180E+02   0.905E-14 0.395E+02 -.176E+02   -.867E-18 0.540E+01 -.360E+00   0.128E-13 0.571E-01 -.309E-01
   0.115E-12 -.109E-04 0.652E-03   0.317E-13 0.115E-04 0.211E-03   0.000E+00 0.000E+00 -.678E-20   0.120E-13 -.453E-08 0.658E-06
   0.112E-12 0.450E+02 -.180E+02   -.126E-14 -.395E+02 0.176E+02   0.000E+00 -.540E+01 0.360E+00   0.828E-14 -.571E-01 0.309E-01
   0.121E-12 0.450E+02 0.180E+02   -.898E-14 -.395E+02 -.176E+02   0.000E+00 -.540E+01 -.360E+00   0.108E-13 -.571E-01 -.309E-01
   -.322E-14 -.655E-13 -.250E+02   0.793E-14 -.194E-13 0.258E+02   0.000E+00 -.271E-19 -.854E+00   0.254E-14 -.902E-13 0.156E-01
   -.171E-14 -.297E-12 -.297E+02   -.121E-13 0.605E-15 0.296E+02   0.593E-20 0.000E+00 0.963E-02   0.282E-14 0.184E-12 0.381E-01
   -.415E-14 0.281E-12 0.297E+02   -.500E-14 -.426E-13 -.296E+02   0.000E+00 0.000E+00 -.963E-02   -.550E-14 -.337E-13 -.381E-01
   -.193E-14 -.667E-12 0.250E+02   -.109E-13 -.410E-13 -.258E+02   0.593E-20 -.136E-19 0.854E+00   -.110E-13 0.171E-12 -.156E-01
   -.637E-14 0.747E-13 -.493E+01   -.446E-14 0.333E-13 0.404E+01   0.000E+00 0.000E+00 0.923E+00   -.844E-14 -.961E-13 0.230E-01
   -.573E-14 0.136E-12 0.493E+01   0.291E-13 -.144E-13 -.404E+01   0.000E+00 -.136E-19 -.923E+00   -.668E-14 0.103E-12 -.230E-01
 -----------------------------------------------------------------------------------------------
   0.221E-11 0.679E-10 0.516E-02   -.345E-13 -.693E-13 -.568E-13   -.170E-17 0.888E-15 0.000E+00   0.386E-12 0.268E-12 0.128E-05
 
 
 POSITION                                       TOTAL-FORCE (eV/Angst)
 -----------------------------------------------------------------------------------
      0.00000      3.90124      3.88661         0.000000      0.000000     -0.000000
      0.00000      7.73630      7.70721         0.000000     -0.082205      0.058463
      0.00000      3.83506      0.06601         0.000000     -0.082205     -0.058463
      0.00000      0.00000      3.88661         0.000000      0.000000     -0.000000
      0.00000      3.96742      7.70721         0.000000      0.082205      0.058463
      0.00000      0.06618      0.06601         0.000000      0.082205     -0.058463
      1.95871      1.95062      5.83245         0.000000      0.000000     -0.051952
      1.95871      5.85186      9.72724         0.000000      0.000000     -0.044035
      1.95871      5.85186      1.94077         0.000000      0.000000      0.051952
      1.95871      1.95062      9.70582         0.000000      0.000000      0.044035
      1.95871      5.85186      5.81920        -0.000000      0.000000     -0.006563
      1.95871      1.95062      1.95403        -0.000000      0.000000      0.006563
      1.95871      5.85186      7.81178        -0.000000      0.000000      0.137051
      1.95871      1.95062      3.92565         0.000000      0.000000      0.160128
      1.95871      5.85186      0.00064        -0.000000      0.000000      0.003119
      1.95871      1.95062      7.77259        -0.000000      0.000000     -0.003119
      1.95871      5.85186      3.84757         0.000000      0.000000     -0.160128
      1.95871      1.95062     11.62128        -0.000000      0.000000     -0.137051
      1.95871      3.90124      9.71653         0.000000      0.000000     -0.000000
      1.95871      0.04848      5.84140         0.000000      0.000572     -0.008595
      1.95871      3.94971      1.93182         0.000000      0.000572      0.008595
      1.95871      0.00000      9.71653         0.000000      0.000000     -0.000000
      1.95871      3.85276      5.84140         0.000000     -0.000572     -0.008595
      1.95871      7.75400      1.93182         0.000000     -0.000572      0.008595
      0.00000      5.85186      9.70610         0.000000      0.000000     -0.067601
      0.00000      1.95062      5.84072         0.000000      0.000000     -0.029557
      0.00000      5.85186      1.93251         0.000000      0.000000      0.029557
      0.00000      1.95062      9.72696         0.000000      0.000000      0.067601
      0.00000      5.85186      5.85461         0.000000      0.000000      0.047266
      0.00000      1.95062      1.91862         0.000000      0.000000     -0.047266
 -----------------------------------------------------------------------------------
    total drift:                                0.000000      0.000000      0.005158


--------------------------------------------------------------------------------------------------------



  FREE ENERGIE OF THE ION-ELECTRON SYSTEM (eV)
  ---------------------------------------------------
  free  energy   TOTEN  =      -226.66206117 eV

  energy  without entropy=     -226.66206117  energy(sigma->0) =     -226.66206117
 


--------------------------------------------------------------------------------------------------------


    POTLOK:  cpu time    0.0876: real time    0.0878


--------------------------------------------------------------------------------------------------------


     LOOP+:  cpu time   96.6841: real time   97.0685
    4ORBIT:  cpu time    0.0000: real time    0.0000
 


 total charge     
 
# of ion       s       p       d       f       tot
--------------------------------------------------
    1        1.998   5.696   0.475   0.184   8.353
    2        1.999   5.697   0.487   0.188   8.372
    3        1.999   5.697   0.487   0.188   8.372
    4        1.998   5.696   0.475   0.184   8.353
    5        1.999   5.697   0.487   0.188   8.372
    6        2.000   5.697   0.487   0.188   8.373
    7        0.341   0.532   4.870   0.000   5.743
    8        0.325   0.495   4.873   0.000   5.692
    9        0.341   0.532   4.871   0.000   5.743
   10        0.325   0.495   4.873   0.000   5.693
   11        0.390   0.556   8.323   0.000   9.269
   12        0.390   0.556   8.323   0.000   9.269
   13        1.561   3.457   0.000   0.000   5.018
   14        1.561   3.453   0.000   0.000   5.014
   15        1.561   3.466   0.000   0.000   5.027
   16        1.561   3.466   0.000   0.000   5.027
   17        1.561   3.453   0.000   0.000   5.014
   18        1.561   3.457   0.000   0.000   5.018
   19        1.565   3.454   0.000   0.000   5.019
   20        1.561   3.459   0.000   0.000   5.020
   21        1.561   3.459   0.000   0.000   5.020
   22        1.565   3.454   0.000   0.000   5.019
   23        1.561   3.459   0.000   0.000   5.020
   24        1.561   3.459   0.000   0.000   5.020
   25        1.564   3.451   0.000   0.000   5.016
   26        1.566   3.456   0.000   0.000   5.022
   27        1.566   3.456   0.000   0.000   5.022
   28        1.564   3.451   0.000   0.000   5.016
   29        1.554   3.456   0.000   0.000   5.010
   30        1.554   3.456   0.000   0.000   5.010
--------------------------------------------------
tot         42.214  99.569  39.032   1.122 181.937

 


 magnetization (x)
 
# of ion       s       p       d       f       tot
--------------------------------------------------
    1        0.001   0.001   0.008   0.004   0.013
    2        0.001   0.001   0.010   0.005   0.016
    3        0.001   0.001   0.010   0.005   0.016
    4        0.001   0.001   0.008   0.004   0.013
    5        0.001   0.001   0.010   0.005   0.016
    6        0.001   0.001   0.010   0.005   0.016
    7        0.026   0.031   3.470   0.000   3.528
    8        0.024   0.025   3.633   0.000   3.681
    9        0.026   0.031   3.471   0.000   3.528
   10        0.024   0.025   3.633   0.000   3.682
   11        0.012   0.002   1.701   0.000   1.714
   12        0.012   0.002   1.701   0.000   1.714
   13        0.005  -0.032   0.000   0.000  -0.027
   14        0.005  -0.022   0.000   0.000  -0.017
   15        0.002  -0.020   0.000   0.000  -0.018
   16        0.002  -0.020   0.000   0.000  -0.018
   17        0.005  -0.022   0.000   0.000  -0.017
   18        0.005  -0.032   0.000   0.000  -0.027
   19        0.006  -0.033   0.000   0.000  -0.027
   20        0.005  -0.008   0.000   0.000  -0.002
   21        0.005  -0.007   0.000   0.000  -0.002
   22        0.006  -0.033   0.000   0.000  -0.027
   23        0.005  -0.007   0.000   0.000  -0.002
   24        0.005  -0.007   0.000   0.000  -0.002
   25        0.005  -0.044   0.000   0.000  -0.038
   26        0.007  -0.046   0.000   0.000  -0.040
   27        0.007  -0.046   0.000   0.000  -0.040
   28        0.005  -0.044   0.000   0.000  -0.038
   29        0.006   0.024   0.000   0.000   0.030
   30        0.006   0.024   0.000   0.000   0.030
--------------------------------------------------
tot          0.219  -0.255  17.664   0.028  17.655

 
 BZINTS: Fermi energy:  7.936890;222.000000 electrons
         Band energy:-375.710051;  BLOECHL correction: -0.133415

 total amount of memory used by VASP MPI-rank0    75983. kBytes
=======================================================================

   base      :      30000. kBytes
   nonlr-proj:       6827. kBytes
   fftplans  :       2694. kBytes
   grid      :       7580. kBytes
   one-center:        294. kBytes
   wavefun   :      28588. kBytes
 
  
  
 General timing and accounting informations for this job:
 ========================================================
  
                  Total CPU time used (sec):      106.714
                            User time (sec):      102.674
                          System time (sec):        4.039
                         Elapsed time (sec):      107.243
  
                   Maximum memory used (kb):      129216.
                   Average memory used (kb):           0.
  
                          Minor page faults:        42311
                          Major page faults:            0
                 Voluntary context switches:         1538
