 vasp.5.4.4.18Apr17-6-g9f103f2a35 (build Oct 03 2018 13:58:34) complex          
  
 executed on             LinuxIFC date 2019.06.04  01:08:53
 running on   40 total cores
 distrk:  each k-point on   20 cores,    2 groups
 distr:  one band on NCORES_PER_BAND=  10 cores,    2 groups


--------------------------------------------------------------------------------------------------------


 INCAR:
 POTCAR:    PAW_PBE La 06Sep2000                  
 POTCAR:    PAW_PBE Mn 06Sep2000                  
 POTCAR:    PAW_PBE Ni 02Aug2007                  
 POTCAR:    PAW_PBE O 08Apr2002                   

 ----------------------------------------------------------------------------- 
|                                                                             |
|           W    W    AA    RRRRR   N    N  II  N    N   GGGG   !!!           |
|           W    W   A  A   R    R  NN   N  II  NN   N  G    G  !!!           |
|           W    W  A    A  R    R  N N  N  II  N N  N  G       !!!           |
|           W WW W  AAAAAA  RRRRR   N  N N  II  N  N N  G  GGG   !            |
|           WW  WW  A    A  R   R   N   NN  II  N   NN  G    G                |
|           W    W  A    A  R    R  N    N  II  N    N   GGGG   !!!           |
|                                                                             |
|      You have enabled k-point parallelism (KPAR>1).                         |
|      This developmental code was originally  written by Paul Kent at ORNL,  |
|      and carefully double checked in Vienna.                                |
|      GW as well as linear response parallelism added by Martijn Marsman     |
|      and Georg Kresse.                                                      |
|      Carefully verify results versus KPAR=1.                                |
|      Report problems to Paul Kent and Vienna.                               |
|                                                                             |
 ----------------------------------------------------------------------------- 

 POTCAR:    PAW_PBE La 06Sep2000                  
   VRHFIN =La : [core=Kr4d]                                                     
   LEXCH  = PE                                                                  
   EATOM  =   865.9763 eV,   63.6475 Ry                                         
                                                                                
   TITEL  = PAW_PBE La 06Sep2000                                                
   LULTRA =        F    use ultrasoft PP ?                                      
   IUNSCR =        1    unscreen: 0-lin 1-nonlin 2-no                           
   RPACOR =    2.300    partial core radius                                     
   POMASS =  138.900; ZVAL   =   11.000    mass and valenz                      
   RCORE  =    2.800    outmost cutoff radius                                   
   RWIGS  =    2.900; RWIGS  =    1.535    wigner-seitz radius (au A)           
   ENMAX  =  219.292; ENMIN  =  164.469 eV                                      
   RCLOC  =    1.601    cutoff for local pot                                    
   LCOR   =        T    correct aug charges                                     
   LPAW   =        T    paw PP                                                  
   EAUG   =  583.575                                                            
   DEXC   =    0.000                                                            
   RMAX   =    2.853    core radius for proj-oper                               
   RAUG   =    1.300    factor for augmentation sphere                          
   RDEP   =    2.802    radius for radial grids                                 
   RDEPT  =    2.156    core radius for aug-charge                              
                                                                                
   Atomic configuration                                                         
   14 entries                                                                   
     n  l   j            E        occ.                                          
     1  0  0.50    -38741.0879   2.0000                                         
     2  0  0.50     -6166.6801   2.0000                                         
     2  1  1.50     -5526.1593   6.0000                                         
     3  0  0.50     -1319.0200   2.0000                                         
     3  1  1.50     -1114.5963   6.0000                                         
     3  2  2.50      -821.1793  10.0000                                         
     4  0  0.50      -266.3851   2.0000                                         
     4  1  1.50      -199.9276   6.0000                                         
     4  2  2.50      -103.8239  10.0000                                         
     5  0  0.50       -38.9172   2.0000                                         
     6  0  0.50        -3.6792   2.0000                                         
     5  1  1.50       -22.3948   6.0000                                         
     5  2  2.50        -3.0911   0.9999                                         
     4  3  2.50        -4.3603   0.0001                                         
   Description                                                                  
     l       E           TYP  RCUT    TYP  RCUT                                 
     0    -38.9171645     23  2.800                                             
     0     -3.6792381     23  2.800                                             
     1    -22.3948300     23  2.500                                             
     1     27.2116520     23  2.500                                             
     2     -3.0910934     23  2.500                                             
     2      1.0119135     23  2.500                                             
     3     -4.3602911     23  2.800                                             
     3     -5.7208737     23  2.800                                             
  local pseudopotential read in
  partial core-charges read in
  partial kinetic energy density read in
  atomic valenz-charges read in
  non local Contribution for L=           0  read in
    real space projection operators read in
  non local Contribution for L=           0  read in
    real space projection operators read in
  non local Contribution for L=           1  read in
    real space projection operators read in
  non local Contribution for L=           1  read in
    real space projection operators read in
  non local Contribution for L=           2  read in
    real space projection operators read in
  non local Contribution for L=           2  read in
    real space projection operators read in
  non local Contribution for L=           3  read in
    real space projection operators read in
  non local Contribution for L=           3  read in
    real space projection operators read in
    PAW grid and wavefunctions read in
 
   number of l-projection  operators is LMAX  =           8
   number of lm-projection operators is LMMAX =          32
 
 POTCAR:    PAW_PBE Mn 06Sep2000                  
   VRHFIN =Mn: d6 s1                                                            
   LEXCH  = PE                                                                  
   EATOM  =   416.7541 eV,   30.6306 Ry                                         
                                                                                
   TITEL  = PAW_PBE Mn 06Sep2000                                                
   LULTRA =        F    use ultrasoft PP ?                                      
   IUNSCR =        1    unscreen: 0-lin 1-nonlin 2-no                           
   RPACOR =    2.000    partial core radius                                     
   POMASS =   54.938; ZVAL   =    7.000    mass and valenz                      
   RCORE  =    2.300    outmost cutoff radius                                   
   RWIGS  =    2.500; RWIGS  =    1.323    wigner-seitz radius (au A)           
   ENMAX  =  269.864; ENMIN  =  202.398 eV                                      
   RCLOC  =    1.725    cutoff for local pot                                    
   LCOR   =        T    correct aug charges                                     
   LPAW   =        T    paw PP                                                  
   EAUG   =  500.711                                                            
   DEXC   =    0.000                                                            
   RMAX   =    2.343    core radius for proj-oper                               
   RAUG   =    1.300    factor for augmentation sphere                          
   RDEP   =    2.338    radius for radial grids                                 
   RDEPT  =    1.911    core radius for aug-charge                              
                                                                                
   Atomic configuration                                                         
    9 entries                                                                   
     n  l   j            E        occ.                                          
     1  0  0.50     -6424.8288   2.0000                                         
     2  0  0.50      -739.1154   2.0000                                         
     2  1  1.50      -625.3949   6.0000                                         
     3  0  0.50       -81.6100   2.0000                                         
     3  1  1.50       -50.4667   6.0000                                         
     3  2  2.50        -3.3745   6.0000                                         
     4  0  0.50        -4.1331   1.0000                                         
     4  1  0.50        -4.0817   0.0000                                         
     4  3  2.50        -1.3606   0.0000                                         
   Description                                                                  
     l       E           TYP  RCUT    TYP  RCUT                                 
     2     -3.3744664     23  2.300                                             
     2     -4.7350490     23  2.300                                             
     0     -4.1331408     23  2.300                                             
     0      7.6656614     23  2.300                                             
     1     -2.7211652     23  2.300                                             
     1     20.4087390     23  2.300                                             
  local pseudopotential read in
  partial core-charges read in
  partial kinetic energy density read in
  atomic valenz-charges read in
  non local Contribution for L=           2  read in
    real space projection operators read in
  non local Contribution for L=           2  read in
    real space projection operators read in
  non local Contribution for L=           0  read in
    real space projection operators read in
  non local Contribution for L=           0  read in
    real space projection operators read in
  non local Contribution for L=           1  read in
    real space projection operators read in
  non local Contribution for L=           1  read in
    real space projection operators read in
    PAW grid and wavefunctions read in
 
   number of l-projection  operators is LMAX  =           6
   number of lm-projection operators is LMMAX =          18
 
 POTCAR:    PAW_PBE Ni 02Aug2007                  
   VRHFIN =Ni:                                                                  
   LEXCH  = PE                                                                  
   EATOM  =  1077.6739 eV,   79.2068 Ry                                         
                                                                                
   TITEL  = PAW_PBE Ni 02Aug2007                                                
   LULTRA =        F    use ultrasoft PP ?                                      
   IUNSCR =        1    unscreen: 0-lin 1-nonlin 2-no                           
   RPACOR =    2.000    partial core radius                                     
   POMASS =   58.690; ZVAL   =   10.000    mass and valenz                      
   RCORE  =    2.300    outmost cutoff radius                                   
   RWIGS  =    2.430; RWIGS  =    1.286    wigner-seitz radius (au A)           
   ENMAX  =  269.532; ENMIN  =  202.149 eV                                      
   RCLOC  =    1.201    cutoff for local pot                                    
   LCOR   =        T    correct aug charges                                     
   LPAW   =        T    paw PP                                                  
   EAUG   =  544.565                                                            
   DEXC   =    0.000                                                            
   RMAX   =    2.357    core radius for proj-oper                               
   RAUG   =    1.300    factor for augmentation sphere                          
   RDEP   =    2.390    radius for radial grids                                 
   RDEPT  =    1.838    core radius for aug-charge                              
                                                                                
   Atomic configuration                                                         
    9 entries                                                                   
     n  l   j            E        occ.                                          
     1  0  0.50     -8206.4253   2.0000                                         
     2  0  0.50      -976.1748   2.0000                                         
     2  1  1.50      -839.0571   6.0000                                         
     3  0  0.50      -105.9991   2.0000                                         
     3  1  1.50       -66.4603   6.0000                                         
     3  2  2.50        -4.6458   9.0000                                         
     4  0  0.50        -4.4926   1.0000                                         
     4  1  1.50        -4.0817   0.0000                                         
     4  3  2.50        -1.3606   0.0000                                         
   Description                                                                  
     l       E           TYP  RCUT    TYP  RCUT                                 
     2     -4.6457903     23  2.300                                             
     2     -6.0063729     23  2.300                                             
     0     -4.4925590     23  2.300                                             
     0      5.0102601     23  2.300                                             
     1     -2.7211652     23  2.300                                             
     1     16.5183231     23  2.300                                             
  local pseudopotential read in
  partial core-charges read in
  partial kinetic energy density read in
  atomic valenz-charges read in
  non local Contribution for L=           2  read in
    real space projection operators read in
  non local Contribution for L=           2  read in
    real space projection operators read in
  non local Contribution for L=           0  read in
    real space projection operators read in
  non local Contribution for L=           0  read in
    real space projection operators read in
  non local Contribution for L=           1  read in
    real space projection operators read in
  non local Contribution for L=           1  read in
    real space projection operators read in
    PAW grid and wavefunctions read in
 
   number of l-projection  operators is LMAX  =           6
   number of lm-projection operators is LMMAX =          18
 
 POTCAR:    PAW_PBE O 08Apr2002                   
   VRHFIN =O: s2p4                                                              
   LEXCH  = PE                                                                  
   EATOM  =   432.3788 eV,   31.7789 Ry                                         
                                                                                
   TITEL  = PAW_PBE O 08Apr2002                                                 
   LULTRA =        F    use ultrasoft PP ?                                      
   IUNSCR =        1    unscreen: 0-lin 1-nonlin 2-no                           
   RPACOR =    1.200    partial core radius                                     
   POMASS =   16.000; ZVAL   =    6.000    mass and valenz                      
   RCORE  =    1.520    outmost cutoff radius                                   
   RWIGS  =    1.550; RWIGS  =    0.820    wigner-seitz radius (au A)           
   ENMAX  =  400.000; ENMIN  =  300.000 eV                                      
   ICORE  =        2    local potential                                         
   LCOR   =        T    correct aug charges                                     
   LPAW   =        T    paw PP                                                  
   EAUG   =  605.392                                                            
   DEXC   =    0.000                                                            
   RMAX   =    1.553    core radius for proj-oper                               
   RAUG   =    1.300    factor for augmentation sphere                          
   RDEP   =    1.550    radius for radial grids                                 
   RDEPT  =    1.329    core radius for aug-charge                              
                                                                                
   Atomic configuration                                                         
    4 entries                                                                   
     n  l   j            E        occ.                                          
     1  0  0.50      -514.6923   2.0000                                         
     2  0  0.50       -23.9615   2.0000                                         
     2  1  0.50        -9.0305   4.0000                                         
     3  2  1.50        -9.5241   0.0000                                         
   Description                                                                  
     l       E           TYP  RCUT    TYP  RCUT                                 
     0    -23.9615318     23  1.200                                             
     0     -9.5240782     23  1.200                                             
     1     -9.0304911     23  1.520                                             
     1      8.1634956     23  1.520                                             
     2     -9.5240782      7  1.500                                             
  local pseudopotential read in
  partial core-charges read in
  partial kinetic energy density read in
  kinetic energy density of atom read in
  atomic valenz-charges read in
  non local Contribution for L=           0  read in
    real space projection operators read in
  non local Contribution for L=           0  read in
    real space projection operators read in
  non local Contribution for L=           1  read in
    real space projection operators read in
  non local Contribution for L=           1  read in
    real space projection operators read in
    PAW grid and wavefunctions read in
 
   number of l-projection  operators is LMAX  =           4
   number of lm-projection operators is LMMAX =           8
 
 Optimization of the real space projectors (new method)

 maximal supplied QI-value         = 13.42
 optimisation between [QCUT,QGAM] = [ 11.67, 23.35] = [ 38.16,152.62] Ry 
 Optimized for a Real-space Cutoff    1.63 Angstroem

   l    n(q)    QCUT    max X(q) W(low)/X(q) W(high)/X(q)  e(spline) 
   0     11    11.673    13.882    0.27E-04    0.79E-05    0.11E-06
   0     11    11.673    12.184    0.39E-04    0.13E-04    0.19E-06
   1     11    11.673     4.523    0.73E-05    0.76E-05    0.12E-06
   1     11    11.673     4.424    0.87E-05    0.13E-04    0.19E-06
   2     10    11.673    52.481    0.65E-04    0.36E-04    0.18E-06
   2     10    11.673    38.501    0.61E-04    0.33E-04    0.17E-06
   3     10    11.673    65.631    0.17E-03    0.14E-03    0.37E-06
   3     10    11.673    56.854    0.17E-03    0.14E-03    0.37E-06
 Optimization of the real space projectors (new method)

 maximal supplied QI-value         = 16.25
 optimisation between [QCUT,QGAM] = [ 11.54, 23.24] = [ 37.28,151.24] Ry 
 Optimized for a Real-space Cutoff    1.53 Angstroem

   l    n(q)    QCUT    max X(q) W(low)/X(q) W(high)/X(q)  e(spline) 
   2     10    11.539   110.144    0.12E-03    0.13E-03    0.25E-06
   2     10    11.539   103.200    0.12E-03    0.13E-03    0.25E-06
   0     11    11.539    68.437    0.46E-04    0.21E-04    0.32E-06
   0     11    11.539    33.971    0.37E-04    0.19E-04    0.29E-06
   1     10    11.539    17.065    0.51E-04    0.22E-04    0.13E-06
   1     10    11.539    12.540    0.41E-04    0.18E-04    0.11E-06
 Optimization of the real space projectors (new method)

 maximal supplied QI-value         = 16.25
 optimisation between [QCUT,QGAM] = [ 11.54, 23.24] = [ 37.28,151.24] Ry 
 Optimized for a Real-space Cutoff    1.45 Angstroem

   l    n(q)    QCUT    max X(q) W(low)/X(q) W(high)/X(q)  e(spline) 
   2      9    11.539    60.317    0.19E-03    0.47E-04    0.16E-06
   2      9    11.539    55.921    0.19E-03    0.48E-04    0.16E-06
   0     10    11.539    51.690    0.80E-04    0.50E-04    0.24E-06
   0     10    11.539    30.015    0.73E-04    0.45E-04    0.22E-06
   1     10    11.539    18.849    0.87E-04    0.16E-03    0.71E-07
   1     10    11.539    14.624    0.73E-04    0.13E-03    0.64E-07
 Optimization of the real space projectors (new method)

 maximal supplied QI-value         = 24.76
 optimisation between [QCUT,QGAM] = [ 11.64, 23.27] = [ 37.91,151.63] Ry 
 Optimized for a Real-space Cutoff    1.14 Angstroem

   l    n(q)    QCUT    max X(q) W(low)/X(q) W(high)/X(q)  e(spline) 
   0      8    11.635    20.381    0.10E-03    0.33E-03    0.24E-06
   0      8    11.635    15.268    0.11E-03    0.35E-03    0.26E-06
   1      7    11.635     5.964    0.24E-03    0.31E-03    0.30E-06
   1      7    11.635     5.382    0.22E-03    0.25E-03    0.26E-06
  PAW_PBE La 06Sep2000                  :
 energy of atom  1       EATOM= -865.9763
 kinetic energy error for atom=    0.0009 (will be added to EATOM!!)
  PAW_PBE Mn 06Sep2000                  :
 energy of atom  2       EATOM= -416.7541
 kinetic energy error for atom=    0.0024 (will be added to EATOM!!)
  PAW_PBE Ni 02Aug2007                  :
 energy of atom  3       EATOM=-1077.6739
 kinetic energy error for atom=    0.0030 (will be added to EATOM!!)
  PAW_PBE O 08Apr2002                   :
 energy of atom  4       EATOM= -432.3788
 kinetic energy error for atom=    0.0208 (will be added to EATOM!!)
 
 
 POSCAR: SCEL6_2_1_3_0_0_1/2                     
  positions in direct lattice
  velocities in cartesian coordinates
 exchange correlation table for  LEXCH =        8
   RHO(1)=    0.500       N(1)  =     2000
   RHO(2)=  100.500       N(2)  =     4000
 


--------------------------------------------------------------------------------------------------------


 ion  position               nearest neighbor table
   1  0.500  0.500  0.338-  19 2.71  22 2.71  25 2.71  28 2.71  17 2.75  17 2.75  14 2.75  14 2.75
                            23 2.79  29 2.79  20 2.79  26 2.79   8 3.34   8 3.34  11 3.35  11 3.35
   2  0.000  0.000  0.667-  13 2.75  16 2.75  13 2.75  16 2.75  27 2.77  30 2.77  21 2.77  24 2.77
                            28 2.77  19 2.77  25 2.77  22 2.77  12 3.37  12 3.37  11 3.37  11 3.37
   3  0.500  0.500  0.996-  21 2.71  24 2.71  27 2.71  30 2.71  15 2.75  15 2.75  18 2.75  18 2.75
                            29 2.79  20 2.79  26 2.79  23 2.79   9 3.34   9 3.34  12 3.35  12 3.35
   4  0.000  0.000  0.338-  19 2.71  22 2.71  25 2.71  28 2.71  17 2.75  17 2.75  14 2.75  14 2.75
                            23 2.79  29 2.79  20 2.79  26 2.79   8 3.34   8 3.34  11 3.35  11 3.35
   5  0.500  0.500  0.667-  13 2.75  16 2.75  16 2.75  13 2.75  27 2.77  30 2.77  21 2.77  24 2.77
                            28 2.77  19 2.77  25 2.77  22 2.77  12 3.37  12 3.37  11 3.37  11 3.37
   6  0.000  0.000  0.996-  21 2.71  24 2.71  27 2.71  30 2.71  15 2.75  15 2.75  18 2.75  18 2.75
                            29 2.79  20 2.79  26 2.79  23 2.79   9 3.34   9 3.34  12 3.35  12 3.35
   7  0.500  0.000  0.167-  14 1.92  18 1.92  20 1.94  23 1.94  26 1.94  29 1.94   1 3.40   4 3.40
                             1 3.40   4 3.40   3 3.40   3 3.40   6 3.40   6 3.40
   8  0.000  0.500  0.500-  19 1.90  22 1.90  25 1.90  28 1.90  17 1.95  13 1.96   1 3.34   4 3.34
                             4 3.34   1 3.34   2 3.38   2 3.38   5 3.38   5 3.38
   9  0.000  0.500  0.834-  21 1.90  24 1.90  27 1.90  30 1.90  15 1.95  13 1.96   3 3.34   6 3.34
                             6 3.34   3 3.34   2 3.38   5 3.38   2 3.38   5 3.38
  10  0.000  0.500  0.167-  17 1.95  15 1.95  20 1.95  23 1.95  26 1.95  29 1.95   1 3.40   4 3.40
                             4 3.40   1 3.40   3 3.40   6 3.40   6 3.40   3 3.40
  11  0.500  0.000  0.500-  16 1.95  19 1.99  22 1.99  25 1.99  28 1.99  14 1.99   1 3.35   4 3.35
                             1 3.35   4 3.35   2 3.37   5 3.37   2 3.37   5 3.37
  12  0.500  0.000  0.833-  16 1.95  21 1.99  24 1.99  27 1.99  30 1.99  18 1.99   3 3.35   6 3.35
                             3 3.35   6 3.35   5 3.37   5 3.37   2 3.37   2 3.37
  13  0.000  0.500  0.667-   9 1.96   8 1.96   2 2.75   5 2.75   2 2.75   5 2.75
  14  0.500  0.000  0.330-   7 1.92  11 1.99   1 2.75   4 2.75   1 2.75   4 2.75
  15  0.000  0.500  0.000-  10 1.95   9 1.95   3 2.75   6 2.75   6 2.75   3 2.75
  16  0.500  0.000  0.667-  12 1.95  11 1.95   2 2.75   5 2.75   5 2.75   2 2.75
  17  0.000  0.500  0.333-  10 1.95   8 1.95   1 2.75   4 2.75   4 2.75   1 2.75
  18  0.500  0.000  0.003-   7 1.92  12 1.99   3 2.75   6 2.75   3 2.75   6 2.75
  19  0.756  0.744  0.498-   8 1.90  11 1.99   1 2.71   4 2.71   2 2.77   5 2.77
  20  0.251  0.249  0.167-   7 1.94  10 1.95   1 2.79   4 2.79   3 2.79   6 2.79
  21  0.756  0.744  0.835-   9 1.90  12 1.99   3 2.71   6 2.71   5 2.77   2 2.77
  22  0.244  0.256  0.498-   8 1.90  11 1.99   1 2.71   4 2.71   2 2.77   5 2.77
  23  0.749  0.751  0.167-   7 1.94  10 1.95   1 2.79   4 2.79   3 2.79   6 2.79
  24  0.244  0.256  0.835-   9 1.90  12 1.99   3 2.71   6 2.71   5 2.77   2 2.77
  25  0.756  0.256  0.498-   8 1.90  11 1.99   1 2.71   4 2.71   2 2.77   5 2.77
  26  0.251  0.751  0.167-   7 1.94  10 1.95   1 2.79   4 2.79   3 2.79   6 2.79
  27  0.756  0.256  0.835-   9 1.90  12 1.99   3 2.71   6 2.71   5 2.77   2 2.77
  28  0.244  0.744  0.498-   8 1.90  11 1.99   1 2.71   4 2.71   2 2.77   5 2.77
  29  0.749  0.249  0.167-   7 1.94  10 1.95   1 2.79   4 2.79   3 2.79   6 2.79
  30  0.244  0.744  0.835-   9 1.90  12 1.99   3 2.71   6 2.71   5 2.77   2 2.77
 
  LATTYP: Found a simple tetragonal cell.
 ALAT       =     5.5036765117
 C/A-ratio  =     2.1275598917
  
  Lattice vectors:
  
 A1 = (   3.8916869829,   3.8916869829,   0.0000000000)
 A2 = (   3.8916869829,  -3.8916869829,   0.0000000000)
 A3 = (   0.0000000000,   0.0000000000, -11.7094014032)


Analysis of symmetry for initial positions (statically):
=====================================================================
 Subroutine PRICEL returns:
 Original cell was already a primitive cell.
 

 Routine SETGRP: Setting up the symmetry group for a 
 simple tetragonal supercell.


 Subroutine GETGRP returns: Found 16 space group operations
 (whereof  4 operations were pure point group operations)
 out of a pool of 16 trial point group operations.


The static configuration has the point symmetry C_2v.
 The point group associated with its full space group is D_4h.


Analysis of symmetry for dynamics (positions and initial velocities):
=====================================================================
 Subroutine PRICEL returns:
 Original cell was already a primitive cell.
 

 Routine SETGRP: Setting up the symmetry group for a 
 simple tetragonal supercell.


 Subroutine GETGRP returns: Found 16 space group operations
 (whereof  4 operations were pure point group operations)
 out of a pool of 16 trial point group operations.


The dynamic configuration has the point symmetry C_2v.
 The point group associated with its full space group is D_4h.


Analysis of structural, dynamic, and magnetic symmetry:
=====================================================================
 Subroutine PRICEL returns:
 Original cell was already a primitive cell.
 

 Routine SETGRP: Setting up the symmetry group for a 
 simple tetragonal supercell.


 Subroutine GETGRP returns: Found 16 space group operations
 (whereof  4 operations were pure point group operations)
 out of a pool of 16 trial point group operations.


The magnetic configuration has the point symmetry C_2v.
 The point group associated with its full space group is D_4h.


 Subroutine INISYM returns: Found 16 space group operations
 (whereof  4 operations are pure point group operations),
 and found     1 'primitive' translations

 
 
 KPOINTS: Automatic mesh                          

Automatic generation of k-mesh.
 generate k-points for:    4    4    2
Space group operators:
 irot       det(A)        alpha          n_x          n_y          n_z        tau_x        tau_y        tau_z
    1     1.000000     0.000000     1.000000     0.000000     0.000000     0.000000     0.000000     0.000000
    2     1.000000   180.000000     0.000000     0.000000     1.000000     0.000000     0.000000     0.000000
    3    -1.000000   180.000000     0.707107    -0.707107     0.000000     0.000000     0.000000     0.000000
    4    -1.000000   180.000000     0.707107     0.707107     0.000000     0.000000     0.000000     0.000000
    5    -1.000000     0.000000     1.000000     0.000000     0.000000     0.000000     0.000000     0.333333
    6     1.000000    90.000000     0.000000     0.000000     1.000000     0.500000     0.500000     0.000000
    7    -1.000000    90.000000     0.000000     0.000000     1.000000     0.500000     0.500000     0.333333
    8    -1.000000   180.000000     0.000000     0.000000     1.000000     0.000000     0.000000     0.333333
    9     1.000000    90.000000     0.000000     0.000000    -1.000000     0.500000     0.500000     0.000000
   10    -1.000000    90.000000     0.000000     0.000000    -1.000000     0.500000     0.500000     0.333333
   11     1.000000   180.000000     0.707107    -0.707107     0.000000     0.000000     0.000000     0.333333
   12     1.000000   180.000000     1.000000     0.000000     0.000000     0.500000     0.500000     0.333333
   13    -1.000000   180.000000     1.000000     0.000000     0.000000     0.500000     0.500000     0.000000
   14     1.000000   180.000000     0.707107     0.707107     0.000000     0.000000     0.000000     0.333333
   15     1.000000   179.999999     0.000000     1.000000     0.000000     0.500000     0.500000     0.333333
   16    -1.000000   179.999999     0.000000     1.000000     0.000000     0.500000     0.500000     0.000000
 
 Subroutine IBZKPT returns following result:
 ===========================================
 
 Found     12 irreducible k-points:
 
 Following reciprocal coordinates:
            Coordinates               Weight
  0.000000  0.000000  0.000000      1.000000
  0.250000  0.000000  0.000000      4.000000
  0.500000  0.000000  0.000000      2.000000
  0.250000  0.250000  0.000000      4.000000
  0.500000  0.250000  0.000000      4.000000
  0.500000  0.500000  0.000000      1.000000
  0.000000  0.000000  0.500000      1.000000
  0.250000  0.000000  0.500000      4.000000
  0.500000  0.000000  0.500000      2.000000
  0.250000  0.250000  0.500000      4.000000
  0.500000  0.250000  0.500000      4.000000
  0.500000  0.500000  0.500000      1.000000
 
 Following cartesian coordinates:
            Coordinates               Weight
  0.000000  0.000000  0.000000      1.000000
  0.032120  0.032120  0.000000      4.000000
  0.064239  0.064239  0.000000      2.000000
  0.064239  0.000000  0.000000      4.000000
  0.096359  0.032120  0.000000      4.000000
  0.128479  0.000000  0.000000      1.000000
  0.000000  0.000000 -0.042701      1.000000
  0.032120  0.032120 -0.042701      4.000000
  0.064239  0.064239 -0.042701      2.000000
  0.064239  0.000000 -0.042701      4.000000
  0.096359  0.032120 -0.042701      4.000000
  0.128479  0.000000 -0.042701      1.000000
 
 TETIRR: Found     48 inequivalent tetrahedra from      192


--------------------------------------------------------------------------------------------------------




 Dimension of arrays:
   k-points           NKPTS =     12   k-points in BZ     NKDIM =     12   number of bands    NBANDS=    144
   number of dos      NEDOS =    301   number of ions     NIONS =     30
   non local maximal  LDIM  =      8   non local SUM 2l+1 LMDIM =     32
   total plane-waves  NPLWV = 158760
   max r-space proj   IRMAX =   8128   max aug-charges    IRDMAX=  23586
   dimension x,y,z NGX =    42 NGY =   42 NGZ =   90
   dimension x,y,z NGXF=    84 NGYF=   84 NGZF=  180
   support grid    NGXF=    84 NGYF=   84 NGZF=  180
   ions per type =               6   4   2  18
   NGX,Y,Z   is equivalent  to a cutoff of  12.69, 12.69, 12.78 a.u.
   NGXF,Y,Z  is equivalent  to a cutoff of  25.37, 25.37, 25.56 a.u.

 SYSTEM =  final                                   
 POSCAR =  SCEL6_2_1_3_0_0_1/2                     

 Startparameter for this run:
   NWRITE =      2    write-flag & timer
   PREC   = accura    normal or accurate (medium, high low for compatibility)
   ISTART =      0    job   : 0-new  1-cont  2-samecut
   ICHARG =      1    charge: 1-file 2-atom 10-const
   ISPIN  =      2    spin polarized calculation?
   LNONCOLLINEAR =      F non collinear calculations
   LSORBIT =      F    spin-orbit coupling
   INIWAV =      1    electr: 0-lowe 1-rand  2-diag
   LASPH  =      F    aspherical Exc in radial PAW
   METAGGA=      F    non-selfconsistent MetaGGA calc.

 Electronic Relaxation 1
   ENCUT  =  520.0 eV  38.22 Ry    6.18 a.u.  10.23 10.23 21.77*2*pi/ulx,y,z
   ENINI  =  520.0     initial cutoff
   ENAUG  =  605.4 eV  augmentation charge cutoff
   NELM   =    100;   NELMIN=  2; NELMDL= -5     # of ELM steps 
   EDIFF  = 0.1E-02   stopping-criterion for ELM
   LREAL  =      T    real-space projection
   NLSPLINE    = F    spline interpolate recip. space projectors
   LCOMPAT=      F    compatible to vasp.4.4
   GGA_COMPAT  = T    GGA compatible to vasp.4.4-vasp.4.6
   LMAXPAW     = -100 max onsite density
   LMAXMIX     =    6 max onsite mixed and CHGCAR
   VOSKOWN=      0    Vosko Wilk Nusair interpolation
   ROPT   =   -0.00025  -0.00025  -0.00025  -0.00025
 Ionic relaxation
   EDIFFG = 0.1E-01   stopping-criterion for IOM
   NSW    =      0    number of steps for IOM
   NBLOCK =      1;   KBLOCK =      1    inner block; outer block 
   IBRION =     -1    ionic relax: 0-MD 1-quasi-New 2-CG
   NFREE  =      0    steps in history (QN), initial steepest desc. (CG)
   ISIF   =      2    stress and relaxation
   IWAVPR =     10    prediction:  0-non 1-charg 2-wave 3-comb
   ISYM   =      2    0-nonsym 1-usesym 2-fastsym
   LCORR  =      T    Harris-Foulkes like correction to forces

   POTIM  = 0.5000    time-step for ionic-motion
   TEIN   =    0.0    initial temperature
   TEBEG  =    0.0;   TEEND  =   0.0 temperature during run
   SMASS  =  -3.00    Nose mass-parameter (am)
   estimated Nose-frequenzy (Omega)   =  0.10E-29 period in steps =****** mass=  -0.692E-27a.u.
   SCALEE = 1.0000    scale energy and forces
   NPACO  =    256;   APACO  = 16.0  distance and # of slots for P.C.
   PSTRESS=    0.0 pullay stress

  Mass of Ions in am
   POMASS = 138.90 54.94 58.69 16.00
  Ionic Valenz
   ZVAL   =  11.00  7.00 10.00  6.00
  Atomic Wigner-Seitz radii
   RWIGS  =  -1.00 -1.00 -1.00 -1.00
  virtual crystal weights 
   VCA    =   1.00  1.00  1.00  1.00
   NELECT =     222.0000    total number of electrons
   NUPDOWN=      -1.0000    fix difference up-down

 DOS related values:
   EMIN   =  10.00;   EMAX   =-10.00  energy-range for DOS
   EFERMI =   0.00
   ISMEAR =    -5;   SIGMA  =   0.05  broadening in eV -4-tet -1-fermi 0-gaus

 Electronic relaxation 2 (details)
   IALGO  =     68    algorithm
   LDIAG  =      T    sub-space diagonalisation (order eigenvalues)
   LSUBROT=      F    optimize rotation matrix (better conditioning)
   TURBO    =      0    0=normal 1=particle mesh
   IRESTART =      0    0=no restart 2=restart with 2 vectors
   NREBOOT  =      0    no. of reboots
   NMIN     =      0    reboot dimension
   EREF     =   0.00    reference energy to select bands
   IMIX   =      4    mixing-type and parameters
     AMIX     =   0.40;   BMIX     =  1.00
     AMIX_MAG =   1.60;   BMIX_MAG =  1.00
     AMIN     =   0.10
     WC   =   100.;   INIMIX=   1;  MIXPRE=   1;  MAXMIX= -45

 Intra band minimization:
   WEIMIN = 0.0000     energy-eigenvalue tresh-hold
   EBREAK =  0.17E-05  absolut break condition
   DEPER  =   0.30     relativ break condition  

   TIME   =   0.40     timestep for ELM

  volume/ion in A,a.u.               =      11.82        79.78
  Fermi-wavevector in a.u.,A,eV,Ry     =   1.400379  2.646333 26.681868  1.961062
  Thomas-Fermi vector in A             =   2.523346
 
 Write flags
   LWAVE        =      F    write WAVECAR
   LDOWNSAMPLE  =      F    k-point downsampling of WAVECAR
   LCHARG       =      T    write CHGCAR
   LVTOT        =      F    write LOCPOT, total local potential
   LVHAR        =      F    write LOCPOT, Hartree potential only
   LELF         =      F    write electronic localiz. function (ELF)
   LORBIT       =     11    0 simple, 1 ext, 2 COOP (PROOUT), +10 PAW based schemes


 Dipole corrections
   LMONO  =      F    monopole corrections only (constant potential shift)
   LDIPOL =      F    correct potential (dipole corrections)
   IDIPOL =      0    1-x, 2-y, 3-z, 4-all directions 
   EPSILON=  1.0000000 bulk dielectric constant

 LDA+U is selected, type is set to LDAUTYPE =  2
   angular momentum for each species LDAUL =     0    2    2    0
   U (eV)           for each species LDAUU =   0.0  3.9  6.2  0.0
   J (eV)           for each species LDAUJ =   0.0  0.0  0.0  0.0
 Exchange correlation treatment:
   GGA     =    --    GGA type
   LEXCH   =     8    internal setting for exchange type
   VOSKOWN=      0    Vosko Wilk Nusair interpolation
   LHFCALC =     F    Hartree Fock is set to
   LHFONE  =     F    Hartree Fock one center treatment
   AEXX    =    0.0000 exact exchange contribution

 Linear response parameters
   LEPSILON=     F    determine dielectric tensor
   LRPA    =     F    only Hartree local field effects (RPA)
   LNABLA  =     F    use nabla operator in PAW spheres
   LVEL    =     F    velocity operator in full k-point grid
   LINTERFAST=   F  fast interpolation
   KINTER  =     0    interpolate to denser k-point grid
   CSHIFT  =0.1000    complex shift for real part using Kramers Kronig
   OMEGAMAX=  -1.0    maximum frequency
   DEG_THRESHOLD= 0.2000000E-02 threshold for treating states as degnerate
   RTIME   =   -0.100 relaxation time in fs
  (WPLASMAI=    0.000 imaginary part of plasma frequency in eV, 0.658/RTIME)
   DFIELD  = 0.0000000 0.0000000 0.0000000 field for delta impulse in time
 
 Orbital magnetization related:
   ORBITALMAG=     F  switch on orbital magnetization
   LCHIMAG   =     F  perturbation theory with respect to B field
   DQ        =  0.001000  dq finite difference perturbation B field
   LLRAUG    =     F  two centre corrections for induced B field



--------------------------------------------------------------------------------------------------------


 Static calculation
 charge density and potential will be updated during run
 spin polarized calculation
 RMM-DIIS sequential band-by-band and
  variant of blocked Davidson during initial phase
 perform sub-space diagonalisation
    before iterative eigenvector-optimisation
 modified Broyden-mixing scheme, WC =      100.0
 initial mixing is a Kerker type mixing with AMIX =  0.4000 and BMIX =      1.0000
 Hartree-type preconditioning will be used
 using additional bands           33
 real space projection scheme for non local part
 use partial core corrections
 calculate Harris-corrections to forces 
   (improved forces if not selfconsistent)
 use gradient corrections 
 use of overlap-Matrix (Vanderbilt PP)
 Fermi weights with tetrahedron method with Bloechl corrections


--------------------------------------------------------------------------------------------------------


  energy-cutoff  :      520.00
  volume of cell :      354.68
      direct lattice vectors                 reciprocal lattice vectors
     3.891686983  3.891686983  0.000000000     0.128478987  0.128478987  0.000000000
     3.891686983 -3.891686983  0.000000000     0.128478987 -0.128478987  0.000000000
     0.000000000  0.000000000-11.709401403     0.000000000  0.000000000 -0.085401462

  length of vectors
     5.503676512  5.503676512 11.709401403     0.181696725  0.181696725  0.085401462


 
 k-points in units of 2pi/SCALE and weight: Automatic mesh                          
   0.00000000  0.00000000  0.00000000       0.031
   0.03211975  0.03211975  0.00000000       0.125
   0.06423949  0.06423949  0.00000000       0.062
   0.06423949  0.00000000  0.00000000       0.125
   0.09635924  0.03211975  0.00000000       0.125
   0.12847899  0.00000000  0.00000000       0.031
   0.00000000  0.00000000 -0.04270073       0.031
   0.03211975  0.03211975 -0.04270073       0.125
   0.06423949  0.06423949 -0.04270073       0.062
   0.06423949  0.00000000 -0.04270073       0.125
   0.09635924  0.03211975 -0.04270073       0.125
   0.12847899  0.00000000 -0.04270073       0.031
 
 k-points in reciprocal lattice and weights: Automatic mesh                          
   0.00000000  0.00000000  0.00000000       0.031
   0.25000000  0.00000000  0.00000000       0.125
   0.50000000  0.00000000  0.00000000       0.062
   0.25000000  0.25000000  0.00000000       0.125
   0.50000000  0.25000000  0.00000000       0.125
   0.50000000  0.50000000  0.00000000       0.031
   0.00000000  0.00000000  0.50000000       0.031
   0.25000000  0.00000000  0.50000000       0.125
   0.50000000  0.00000000  0.50000000       0.062
   0.25000000  0.25000000  0.50000000       0.125
   0.50000000  0.25000000  0.50000000       0.125
   0.50000000  0.50000000  0.50000000       0.031
 
 position of ions in fractional coordinates (direct lattice) 
   0.50000000  0.50000000  0.33767558
   0.00000000  0.00000000  0.66666670
   0.50000000  0.50000000  0.99565772
   0.00000000  0.00000000  0.33767558
   0.50000000  0.50000000  0.66666670
   0.00000000  0.00000000  0.99565772
   0.50000000  0.00000000  0.16666670
   0.00000000  0.50000000  0.49958471
   0.00000000  0.50000000  0.83374859
   0.00000000  0.50000000  0.16666670
   0.50000000  0.00000000  0.50045249
   0.50000000  0.00000000  0.83288081
   0.00000000  0.50000000  0.66666670
   0.50000000  0.00000000  0.33021607
   0.00000000  0.50000000  0.00028493
   0.50000000  0.00000000  0.66666670
   0.00000000  0.50000000  0.33304837
   0.50000000  0.00000000  0.00311723
   0.75554085  0.74445915  0.49849908
   0.25059453  0.24940547  0.16666670
   0.75554085  0.74445915  0.83483422
   0.24445915  0.25554085  0.49849908
   0.74940547  0.75059453  0.16666670
   0.24445915  0.25554085  0.83483422
   0.75554085  0.25554085  0.49849908
   0.25059453  0.75059453  0.16666670
   0.75554085  0.25554085  0.83483422
   0.24445915  0.74445915  0.49849908
   0.74940547  0.24940547  0.16666670
   0.24445915  0.74445915  0.83483422
 
 position of ions in cartesian coordinates  (Angst):
   3.89168698  0.00000000 -3.95397886
   0.00000000  0.00000000 -7.80626799
   3.89168698  0.00000000-11.65855595
   0.00000000  0.00000000 -3.95397886
   3.89168698  0.00000000 -7.80626799
   0.00000000  0.00000000-11.65855595
   1.94584349  1.94584349 -1.95156729
   1.94584349 -1.94584349 -5.84983793
   1.94584349 -1.94584349 -9.76269689
   1.94584349 -1.94584349 -1.95156729
   1.94584349  1.94584349 -5.85999913
   1.94584349  1.94584349 -9.75253569
   1.94584349 -1.94584349 -7.80626799
   1.94584349  1.94584349 -3.86663249
   1.94584349 -1.94584349 -0.00333641
   1.94584349  1.94584349 -7.80626799
   1.94584349 -1.94584349 -3.89979701
   1.94584349  1.94584349 -0.03650092
   5.83753047  0.04312652 -5.83712585
   1.94584349  0.00462748 -1.95156729
   5.83753047  0.04312652 -9.77540896
   1.94584349 -0.04312652 -5.83712585
   5.83753047 -0.00462748 -1.95156729
   1.94584349 -0.04312652 -9.77540896
   3.93481350  1.94584349 -5.83712585
   3.89631447 -1.94584349 -1.95156729
   3.93481350  1.94584349 -9.77540896
   3.84856046 -1.94584349 -5.83712585
   3.88705950  1.94584349 -1.95156729
   3.84856046 -1.94584349 -9.77540896
 


--------------------------------------------------------------------------------------------------------


 k-point  1 :   0.0000 0.0000 0.0000  plane waves:    9519
 k-point  2 :   0.2500 0.0000 0.0000  plane waves:    9558
 k-point  3 :   0.5000 0.0000 0.0000  plane waves:    9524
 k-point  4 :   0.2500 0.2500 0.0000  plane waves:    9542
 k-point  5 :   0.5000 0.2500 0.0000  plane waves:    9550
 k-point  6 :   0.5000 0.5000 0.0000  plane waves:    9620
 k-point  7 :   0.0000 0.0000 0.5000  plane waves:    9572
 k-point  8 :   0.2500 0.0000 0.5000  plane waves:    9572
 k-point  9 :   0.5000 0.0000 0.5000  plane waves:    9532
 k-point 10 :   0.2500 0.2500 0.5000  plane waves:    9536
 k-point 11 :   0.5000 0.2500 0.5000  plane waves:    9556
 k-point 12 :   0.5000 0.5000 0.5000  plane waves:    9592

 maximum and minimum number of plane-waves per node :       984      922

 maximum number of plane-waves:      9620
 maximum index in each direction: 
   IXMAX=   10   IYMAX=   10   IZMAX=   21
   IXMIN=  -10   IYMIN=  -10   IZMIN=  -22


 real space projection operators:
  total allocation   :      20072.50 KBytes
  max/ min on nodes  :       2390.61       1801.95


 parallel 3D FFT for wavefunctions:
    minimum data exchange during FFTs selected (reduces bandwidth)
 parallel 3D FFT for charge:
    minimum data exchange during FFTs selected (reduces bandwidth)


 total amount of memory used by VASP MPI-rank0    77827. kBytes
=======================================================================

   base      :      30000. kBytes
   nonlr-proj:       7072. kBytes
   fftplans  :       3030. kBytes
   grid      :       8843. kBytes
   one-center:        294. kBytes
   wavefun   :      28588. kBytes
 
     INWAV:  cpu time    0.0000: real time    0.0001
 Broyden mixing: mesh for mixing (old mesh)
   NGX = 21   NGY = 21   NGZ = 43
  (NGX  = 84   NGY  = 84   NGZ  =180)
  gives a total of  18963 points

 initial charge density was supplied:
 charge density of overlapping atoms calculated
 number of electron     222.0000000 magnetization      22.0000000
 keeping initial charge density in first step


--------------------------------------------------------------------------------------------------------


 Maximum index for non-local projection operator         1136
 Maximum index for augmentation-charges         1898 (set IRDMAX)


--------------------------------------------------------------------------------------------------------


 First call to EWALD:  gamma=   0.250
 Maximum number of real-space cells 3x 3x 2
 Maximum number of reciprocal cells 2x 2x 4

    FEWALD:  cpu time    0.0016: real time    0.0016


--------------------------------------- Iteration      1(   1)  ---------------------------------------


    POTLOK:  cpu time    0.0860: real time    0.0885
    SETDIJ:  cpu time    0.0148: real time    0.0148
atom =   1  type =  1  l = 0
 
 onsite density matrix
 
spin component  1
 
  1.0989
 
spin component  2
 
  1.0989
 
 occupancies and eigenvectors
 
  o =  1.0989  v =  1.0000  0.0000      0.0000  0.0000
  o =  1.0989  v =  0.0000  1.0000      0.0000  0.0000
atom =   2  type =  1  l = 0
 
 onsite density matrix
 
spin component  1
 
  1.0989
 
spin component  2
 
  1.0989
 
 occupancies and eigenvectors
 
  o =  1.0989  v =  1.0000  0.0000      0.0000  0.0000
  o =  1.0989  v =  0.0000  1.0000      0.0000  0.0000
atom =   3  type =  1  l = 0
 
 onsite density matrix
 
spin component  1
 
  1.0989
 
spin component  2
 
  1.0989
 
 occupancies and eigenvectors
 
  o =  1.0989  v =  1.0000  0.0000      0.0000  0.0000
  o =  1.0989  v =  0.0000  1.0000      0.0000  0.0000
atom =   4  type =  1  l = 0
 
 onsite density matrix
 
spin component  1
 
  1.0989
 
spin component  2
 
  1.0989
 
 occupancies and eigenvectors
 
  o =  1.0989  v =  1.0000  0.0000      0.0000  0.0000
  o =  1.0989  v =  0.0000  1.0000      0.0000  0.0000
atom =   5  type =  1  l = 0
 
 onsite density matrix
 
spin component  1
 
  1.0989
 
spin component  2
 
  1.0989
 
 occupancies and eigenvectors
 
  o =  1.0989  v =  1.0000  0.0000      0.0000  0.0000
  o =  1.0989  v =  0.0000  1.0000      0.0000  0.0000
atom =   6  type =  1  l = 0
 
 onsite density matrix
 
spin component  1
 
  1.0989
 
spin component  2
 
  1.0989
 
 occupancies and eigenvectors
 
  o =  1.0989  v =  1.0000  0.0000      0.0000  0.0000
  o =  1.0989  v =  0.0000  1.0000      0.0000  0.0000
atom =   7  type =  2  l = 2
 
 onsite density matrix
 
spin component  1
 
  0.8272  0.0000  0.0000  0.0000  0.0000
  0.0000  0.8272  0.0000  0.0000  0.0000
  0.0000  0.0000  0.8272  0.0000  0.0000
  0.0000  0.0000  0.0000  0.8272  0.0000
  0.0000  0.0000  0.0000  0.0000  0.8272
 
spin component  2
 
  0.2256  0.0000  0.0000  0.0000  0.0000
  0.0000  0.2256  0.0000  0.0000  0.0000
  0.0000  0.0000  0.2256  0.0000  0.0000
  0.0000  0.0000  0.0000  0.2256  0.0000
  0.0000  0.0000  0.0000  0.0000  0.2256
 
 occupancies and eigenvectors
 
  o =  0.2256  v =  0.0000  0.0000  0.0000  0.0000  0.0000  0.0000  0.0000  1.0000  0.0000  0.0000      0.0000  0.0000  0.0000  0.0000  0.0000  0.0000  0.0000  0.0000  0.0000  0.0000
  o =  0.2256  v =  0.0000  0.0000  0.0000  0.0000  0.0000  1.0000  0.0000  0.0000  0.0000  0.0000      0.0000  0.0000  0.0000  0.0000  0.0000  0.0000  0.0000  0.0000  0.0000  0.0000
  o =  0.2256  v =  0.0000  0.0000  0.0000  0.0000  0.0000  0.0000  1.0000  0.0000  0.0000  0.0000      0.0000  0.0000  0.0000  0.0000  0.0000  0.0000  0.0000  0.0000  0.0000  0.0000
  o =  0.2256  v =  0.0000  0.0000  0.0000  0.0000  0.0000  0.0000  0.0000  0.0000  1.0000  0.0000      0.0000  0.0000  0.0000  0.0000  0.0000  0.0000  0.0000  0.0000  0.0000  0.0000
  o =  0.2256  v =  0.0000  0.0000  0.0000  0.0000  0.0000  0.0000  0.0000  0.0000  0.0000  1.0000      0.0000  0.0000  0.0000  0.0000  0.0000  0.0000  0.0000  0.0000  0.0000  0.0000
  o =  0.8272  v =  0.0000  1.0000  0.0000  0.0000  0.0000  0.0000  0.0000  0.0000  0.0000  0.0000      0.0000  0.0000  0.0000  0.0000  0.0000  0.0000  0.0000  0.0000  0.0000  0.0000
  o =  0.8272  v =  0.0000  0.0000  1.0000  0.0000  0.0000  0.0000  0.0000  0.0000  0.0000  0.0000      0.0000  0.0000  0.0000  0.0000  0.0000  0.0000  0.0000  0.0000  0.0000  0.0000
  o =  0.8272  v =  1.0000  0.0000  0.0000  0.0000  0.0000  0.0000  0.0000  0.0000  0.0000  0.0000      0.0000  0.0000  0.0000  0.0000  0.0000  0.0000  0.0000  0.0000  0.0000  0.0000
  o =  0.8272  v =  0.0000  0.0000  0.0000  1.0000  0.0000  0.0000  0.0000  0.0000  0.0000  0.0000      0.0000  0.0000  0.0000  0.0000  0.0000  0.0000  0.0000  0.0000  0.0000  0.0000
  o =  0.8272  v =  0.0000  0.0000  0.0000  0.0000  1.0000  0.0000  0.0000  0.0000  0.0000  0.0000      0.0000  0.0000  0.0000  0.0000  0.0000  0.0000  0.0000  0.0000  0.0000  0.0000
atom =   8  type =  2  l = 2
 
 onsite density matrix
 
spin component  1
 
  0.8272  0.0000  0.0000  0.0000  0.0000
  0.0000  0.8272  0.0000  0.0000  0.0000
  0.0000  0.0000  0.8272  0.0000  0.0000
  0.0000  0.0000  0.0000  0.8272  0.0000
  0.0000  0.0000  0.0000  0.0000  0.8272
 
spin component  2
 
  0.2256  0.0000  0.0000  0.0000  0.0000
  0.0000  0.2256  0.0000  0.0000  0.0000
  0.0000  0.0000  0.2256  0.0000  0.0000
  0.0000  0.0000  0.0000  0.2256  0.0000
  0.0000  0.0000  0.0000  0.0000  0.2256
 
 occupancies and eigenvectors
 
  o =  0.2256  v =  0.0000  0.0000  0.0000  0.0000  0.0000  0.0000  0.0000  1.0000  0.0000  0.0000      0.0000  0.0000  0.0000  0.0000  0.0000  0.0000  0.0000  0.0000  0.0000  0.0000
  o =  0.2256  v =  0.0000  0.0000  0.0000  0.0000  0.0000  1.0000  0.0000  0.0000  0.0000  0.0000      0.0000  0.0000  0.0000  0.0000  0.0000  0.0000  0.0000  0.0000  0.0000  0.0000
  o =  0.2256  v =  0.0000  0.0000  0.0000  0.0000  0.0000  0.0000  1.0000  0.0000  0.0000  0.0000      0.0000  0.0000  0.0000  0.0000  0.0000  0.0000  0.0000  0.0000  0.0000  0.0000
  o =  0.2256  v =  0.0000  0.0000  0.0000  0.0000  0.0000  0.0000  0.0000  0.0000  1.0000  0.0000      0.0000  0.0000  0.0000  0.0000  0.0000  0.0000  0.0000  0.0000  0.0000  0.0000
  o =  0.2256  v =  0.0000  0.0000  0.0000  0.0000  0.0000  0.0000  0.0000  0.0000  0.0000  1.0000      0.0000  0.0000  0.0000  0.0000  0.0000  0.0000  0.0000  0.0000  0.0000  0.0000
  o =  0.8272  v =  0.0000  1.0000  0.0000  0.0000  0.0000  0.0000  0.0000  0.0000  0.0000  0.0000      0.0000  0.0000  0.0000  0.0000  0.0000  0.0000  0.0000  0.0000  0.0000  0.0000
  o =  0.8272  v =  0.0000  0.0000  1.0000  0.0000  0.0000  0.0000  0.0000  0.0000  0.0000  0.0000      0.0000  0.0000  0.0000  0.0000  0.0000  0.0000  0.0000  0.0000  0.0000  0.0000
  o =  0.8272  v =  1.0000  0.0000  0.0000  0.0000  0.0000  0.0000  0.0000  0.0000  0.0000  0.0000      0.0000  0.0000  0.0000  0.0000  0.0000  0.0000  0.0000  0.0000  0.0000  0.0000
  o =  0.8272  v =  0.0000  0.0000  0.0000  1.0000  0.0000  0.0000  0.0000  0.0000  0.0000  0.0000      0.0000  0.0000  0.0000  0.0000  0.0000  0.0000  0.0000  0.0000  0.0000  0.0000
  o =  0.8272  v =  0.0000  0.0000  0.0000  0.0000  1.0000  0.0000  0.0000  0.0000  0.0000  0.0000      0.0000  0.0000  0.0000  0.0000  0.0000  0.0000  0.0000  0.0000  0.0000  0.0000
atom =   9  type =  2  l = 2
 
 onsite density matrix
 
spin component  1
 
  0.8272  0.0000  0.0000  0.0000  0.0000
  0.0000  0.8272  0.0000  0.0000  0.0000
  0.0000  0.0000  0.8272  0.0000  0.0000
  0.0000  0.0000  0.0000  0.8272  0.0000
  0.0000  0.0000  0.0000  0.0000  0.8272
 
spin component  2
 
  0.2256  0.0000  0.0000  0.0000  0.0000
  0.0000  0.2256  0.0000  0.0000  0.0000
  0.0000  0.0000  0.2256  0.0000  0.0000
  0.0000  0.0000  0.0000  0.2256  0.0000
  0.0000  0.0000  0.0000  0.0000  0.2256
 
 occupancies and eigenvectors
 
  o =  0.2256  v =  0.0000  0.0000  0.0000  0.0000  0.0000  0.0000  0.0000  1.0000  0.0000  0.0000      0.0000  0.0000  0.0000  0.0000  0.0000  0.0000  0.0000  0.0000  0.0000  0.0000
  o =  0.2256  v =  0.0000  0.0000  0.0000  0.0000  0.0000  1.0000  0.0000  0.0000  0.0000  0.0000      0.0000  0.0000  0.0000  0.0000  0.0000  0.0000  0.0000  0.0000  0.0000  0.0000
  o =  0.2256  v =  0.0000  0.0000  0.0000  0.0000  0.0000  0.0000  1.0000  0.0000  0.0000  0.0000      0.0000  0.0000  0.0000  0.0000  0.0000  0.0000  0.0000  0.0000  0.0000  0.0000
  o =  0.2256  v =  0.0000  0.0000  0.0000  0.0000  0.0000  0.0000  0.0000  0.0000  1.0000  0.0000      0.0000  0.0000  0.0000  0.0000  0.0000  0.0000  0.0000  0.0000  0.0000  0.0000
  o =  0.2256  v =  0.0000  0.0000  0.0000  0.0000  0.0000  0.0000  0.0000  0.0000  0.0000  1.0000      0.0000  0.0000  0.0000  0.0000  0.0000  0.0000  0.0000  0.0000  0.0000  0.0000
  o =  0.8272  v =  0.0000  1.0000  0.0000  0.0000  0.0000  0.0000  0.0000  0.0000  0.0000  0.0000      0.0000  0.0000  0.0000  0.0000  0.0000  0.0000  0.0000  0.0000  0.0000  0.0000
  o =  0.8272  v =  0.0000  0.0000  1.0000  0.0000  0.0000  0.0000  0.0000  0.0000  0.0000  0.0000      0.0000  0.0000  0.0000  0.0000  0.0000  0.0000  0.0000  0.0000  0.0000  0.0000
  o =  0.8272  v =  1.0000  0.0000  0.0000  0.0000  0.0000  0.0000  0.0000  0.0000  0.0000  0.0000      0.0000  0.0000  0.0000  0.0000  0.0000  0.0000  0.0000  0.0000  0.0000  0.0000
  o =  0.8272  v =  0.0000  0.0000  0.0000  1.0000  0.0000  0.0000  0.0000  0.0000  0.0000  0.0000      0.0000  0.0000  0.0000  0.0000  0.0000  0.0000  0.0000  0.0000  0.0000  0.0000
  o =  0.8272  v =  0.0000  0.0000  0.0000  0.0000  1.0000  0.0000  0.0000  0.0000  0.0000  0.0000      0.0000  0.0000  0.0000  0.0000  0.0000  0.0000  0.0000  0.0000  0.0000  0.0000
atom =  10  type =  2  l = 2
 
 onsite density matrix
 
spin component  1
 
  0.8272  0.0000  0.0000  0.0000  0.0000
  0.0000  0.8272  0.0000  0.0000  0.0000
  0.0000  0.0000  0.8272  0.0000  0.0000
  0.0000  0.0000  0.0000  0.8272  0.0000
  0.0000  0.0000  0.0000  0.0000  0.8272
 
spin component  2
 
  0.2256  0.0000  0.0000  0.0000  0.0000
  0.0000  0.2256  0.0000  0.0000  0.0000
  0.0000  0.0000  0.2256  0.0000  0.0000
  0.0000  0.0000  0.0000  0.2256  0.0000
  0.0000  0.0000  0.0000  0.0000  0.2256
 
 occupancies and eigenvectors
 
  o =  0.2256  v =  0.0000  0.0000  0.0000  0.0000  0.0000  0.0000  0.0000  1.0000  0.0000  0.0000      0.0000  0.0000  0.0000  0.0000  0.0000  0.0000  0.0000  0.0000  0.0000  0.0000
  o =  0.2256  v =  0.0000  0.0000  0.0000  0.0000  0.0000  1.0000  0.0000  0.0000  0.0000  0.0000      0.0000  0.0000  0.0000  0.0000  0.0000  0.0000  0.0000  0.0000  0.0000  0.0000
  o =  0.2256  v =  0.0000  0.0000  0.0000  0.0000  0.0000  0.0000  1.0000  0.0000  0.0000  0.0000      0.0000  0.0000  0.0000  0.0000  0.0000  0.0000  0.0000  0.0000  0.0000  0.0000
  o =  0.2256  v =  0.0000  0.0000  0.0000  0.0000  0.0000  0.0000  0.0000  0.0000  1.0000  0.0000      0.0000  0.0000  0.0000  0.0000  0.0000  0.0000  0.0000  0.0000  0.0000  0.0000
  o =  0.2256  v =  0.0000  0.0000  0.0000  0.0000  0.0000  0.0000  0.0000  0.0000  0.0000  1.0000      0.0000  0.0000  0.0000  0.0000  0.0000  0.0000  0.0000  0.0000  0.0000  0.0000
  o =  0.8272  v =  0.0000  1.0000  0.0000  0.0000  0.0000  0.0000  0.0000  0.0000  0.0000  0.0000      0.0000  0.0000  0.0000  0.0000  0.0000  0.0000  0.0000  0.0000  0.0000  0.0000
  o =  0.8272  v =  0.0000  0.0000  1.0000  0.0000  0.0000  0.0000  0.0000  0.0000  0.0000  0.0000      0.0000  0.0000  0.0000  0.0000  0.0000  0.0000  0.0000  0.0000  0.0000  0.0000
  o =  0.8272  v =  1.0000  0.0000  0.0000  0.0000  0.0000  0.0000  0.0000  0.0000  0.0000  0.0000      0.0000  0.0000  0.0000  0.0000  0.0000  0.0000  0.0000  0.0000  0.0000  0.0000
  o =  0.8272  v =  0.0000  0.0000  0.0000  1.0000  0.0000  0.0000  0.0000  0.0000  0.0000  0.0000      0.0000  0.0000  0.0000  0.0000  0.0000  0.0000  0.0000  0.0000  0.0000  0.0000
  o =  0.8272  v =  0.0000  0.0000  0.0000  0.0000  1.0000  0.0000  0.0000  0.0000  0.0000  0.0000      0.0000  0.0000  0.0000  0.0000  0.0000  0.0000  0.0000  0.0000  0.0000  0.0000
atom =  11  type =  3  l = 2
 
 onsite density matrix
 
spin component  1
 
  1.1008  0.0000  0.0000  0.0000  0.0000
  0.0000  1.1008  0.0000  0.0000  0.0000
  0.0000  0.0000  1.1008  0.0000  0.0000
  0.0000  0.0000  0.0000  1.1008  0.0000
  0.0000  0.0000  0.0000  0.0000  1.1008
 
spin component  2
 
  0.5927  0.0000  0.0000  0.0000  0.0000
  0.0000  0.5927  0.0000  0.0000  0.0000
  0.0000  0.0000  0.5927  0.0000  0.0000
  0.0000  0.0000  0.0000  0.5927  0.0000
  0.0000  0.0000  0.0000  0.0000  0.5927
 
 occupancies and eigenvectors
 
  o =  0.5927  v =  0.0000  0.0000  0.0000  0.0000  0.0000  1.0000  0.0000  0.0000  0.0000  0.0000      0.0000  0.0000  0.0000  0.0000  0.0000  0.0000  0.0000  0.0000  0.0000  0.0000
  o =  0.5927  v =  0.0000  0.0000  0.0000  0.0000  0.0000  0.0000  1.0000  0.0000  0.0000  0.0000      0.0000  0.0000  0.0000  0.0000  0.0000  0.0000  0.0000  0.0000  0.0000  0.0000
  o =  0.5927  v =  0.0000  0.0000  0.0000  0.0000  0.0000  0.0000  0.0000  1.0000  0.0000  0.0000      0.0000  0.0000  0.0000  0.0000  0.0000  0.0000  0.0000  0.0000  0.0000  0.0000
  o =  0.5927  v =  0.0000  0.0000  0.0000  0.0000  0.0000  0.0000  0.0000  0.0000  1.0000  0.0000      0.0000  0.0000  0.0000  0.0000  0.0000  0.0000  0.0000  0.0000  0.0000  0.0000
  o =  0.5927  v =  0.0000  0.0000  0.0000  0.0000  0.0000  0.0000  0.0000  0.0000  0.0000  1.0000      0.0000  0.0000  0.0000  0.0000  0.0000  0.0000  0.0000  0.0000  0.0000  0.0000
  o =  1.1008  v =  1.0000  0.0000  0.0000  0.0000  0.0000  0.0000  0.0000  0.0000  0.0000  0.0000      0.0000  0.0000  0.0000  0.0000  0.0000  0.0000  0.0000  0.0000  0.0000  0.0000
  o =  1.1008  v =  0.0000  1.0000  0.0000  0.0000  0.0000  0.0000  0.0000  0.0000  0.0000  0.0000      0.0000  0.0000  0.0000  0.0000  0.0000  0.0000  0.0000  0.0000  0.0000  0.0000
  o =  1.1008  v =  0.0000  0.0000  1.0000  0.0000  0.0000  0.0000  0.0000  0.0000  0.0000  0.0000      0.0000  0.0000  0.0000  0.0000  0.0000  0.0000  0.0000  0.0000  0.0000  0.0000
  o =  1.1008  v =  0.0000  0.0000  0.0000  1.0000  0.0000  0.0000  0.0000  0.0000  0.0000  0.0000      0.0000  0.0000  0.0000  0.0000  0.0000  0.0000  0.0000  0.0000  0.0000  0.0000
  o =  1.1008  v =  0.0000  0.0000  0.0000  0.0000  1.0000  0.0000  0.0000  0.0000  0.0000  0.0000      0.0000  0.0000  0.0000  0.0000  0.0000  0.0000  0.0000  0.0000  0.0000  0.0000
atom =  12  type =  3  l = 2
 
 onsite density matrix
 
spin component  1
 
  1.1008  0.0000  0.0000  0.0000  0.0000
  0.0000  1.1008  0.0000  0.0000  0.0000
  0.0000  0.0000  1.1008  0.0000  0.0000
  0.0000  0.0000  0.0000  1.1008  0.0000
  0.0000  0.0000  0.0000  0.0000  1.1008
 
spin component  2
 
  0.5927  0.0000  0.0000  0.0000  0.0000
  0.0000  0.5927  0.0000  0.0000  0.0000
  0.0000  0.0000  0.5927  0.0000  0.0000
  0.0000  0.0000  0.0000  0.5927  0.0000
  0.0000  0.0000  0.0000  0.0000  0.5927
 
 occupancies and eigenvectors
 
  o =  0.5927  v =  0.0000  0.0000  0.0000  0.0000  0.0000  1.0000  0.0000  0.0000  0.0000  0.0000      0.0000  0.0000  0.0000  0.0000  0.0000  0.0000  0.0000  0.0000  0.0000  0.0000
  o =  0.5927  v =  0.0000  0.0000  0.0000  0.0000  0.0000  0.0000  1.0000  0.0000  0.0000  0.0000      0.0000  0.0000  0.0000  0.0000  0.0000  0.0000  0.0000  0.0000  0.0000  0.0000
  o =  0.5927  v =  0.0000  0.0000  0.0000  0.0000  0.0000  0.0000  0.0000  1.0000  0.0000  0.0000      0.0000  0.0000  0.0000  0.0000  0.0000  0.0000  0.0000  0.0000  0.0000  0.0000
  o =  0.5927  v =  0.0000  0.0000  0.0000  0.0000  0.0000  0.0000  0.0000  0.0000  1.0000  0.0000      0.0000  0.0000  0.0000  0.0000  0.0000  0.0000  0.0000  0.0000  0.0000  0.0000
  o =  0.5927  v =  0.0000  0.0000  0.0000  0.0000  0.0000  0.0000  0.0000  0.0000  0.0000  1.0000      0.0000  0.0000  0.0000  0.0000  0.0000  0.0000  0.0000  0.0000  0.0000  0.0000
  o =  1.1008  v =  1.0000  0.0000  0.0000  0.0000  0.0000  0.0000  0.0000  0.0000  0.0000  0.0000      0.0000  0.0000  0.0000  0.0000  0.0000  0.0000  0.0000  0.0000  0.0000  0.0000
  o =  1.1008  v =  0.0000  1.0000  0.0000  0.0000  0.0000  0.0000  0.0000  0.0000  0.0000  0.0000      0.0000  0.0000  0.0000  0.0000  0.0000  0.0000  0.0000  0.0000  0.0000  0.0000
  o =  1.1008  v =  0.0000  0.0000  1.0000  0.0000  0.0000  0.0000  0.0000  0.0000  0.0000  0.0000      0.0000  0.0000  0.0000  0.0000  0.0000  0.0000  0.0000  0.0000  0.0000  0.0000
  o =  1.1008  v =  0.0000  0.0000  0.0000  1.0000  0.0000  0.0000  0.0000  0.0000  0.0000  0.0000      0.0000  0.0000  0.0000  0.0000  0.0000  0.0000  0.0000  0.0000  0.0000  0.0000
  o =  1.1008  v =  0.0000  0.0000  0.0000  0.0000  1.0000  0.0000  0.0000  0.0000  0.0000  0.0000      0.0000  0.0000  0.0000  0.0000  0.0000  0.0000  0.0000  0.0000  0.0000  0.0000
atom =  13  type =  4  l = 0
 
 onsite density matrix
 
spin component  1
 
  0.8190
 
spin component  2
 
  0.8190
 
 occupancies and eigenvectors
 
  o =  0.8190  v =  1.0000  0.0000      0.0000  0.0000
  o =  0.8190  v =  0.0000  1.0000      0.0000  0.0000
atom =  14  type =  4  l = 0
 
 onsite density matrix
 
spin component  1
 
  0.8190
 
spin component  2
 
  0.8190
 
 occupancies and eigenvectors
 
  o =  0.8190  v =  1.0000  0.0000      0.0000  0.0000
  o =  0.8190  v =  0.0000  1.0000      0.0000  0.0000
atom =  15  type =  4  l = 0
 
 onsite density matrix
 
spin component  1
 
  0.8190
 
spin component  2
 
  0.8190
 
 occupancies and eigenvectors
 
  o =  0.8190  v =  1.0000  0.0000      0.0000  0.0000
  o =  0.8190  v =  0.0000  1.0000      0.0000  0.0000
atom =  16  type =  4  l = 0
 
 onsite density matrix
 
spin component  1
 
  0.8190
 
spin component  2
 
  0.8190
 
 occupancies and eigenvectors
 
  o =  0.8190  v =  1.0000  0.0000      0.0000  0.0000
  o =  0.8190  v =  0.0000  1.0000      0.0000  0.0000
atom =  17  type =  4  l = 0
 
 onsite density matrix
 
spin component  1
 
  0.8190
 
spin component  2
 
  0.8190
 
 occupancies and eigenvectors
 
  o =  0.8190  v =  1.0000  0.0000      0.0000  0.0000
  o =  0.8190  v =  0.0000  1.0000      0.0000  0.0000
atom =  18  type =  4  l = 0
 
 onsite density matrix
 
spin component  1
 
  0.8190
 
spin component  2
 
  0.8190
 
 occupancies and eigenvectors
 
  o =  0.8190  v =  1.0000  0.0000      0.0000  0.0000
  o =  0.8190  v =  0.0000  1.0000      0.0000  0.0000
atom =  19  type =  4  l = 0
 
 onsite density matrix
 
spin component  1
 
  0.8190
 
spin component  2
 
  0.8190
 
 occupancies and eigenvectors
 
  o =  0.8190  v =  1.0000  0.0000      0.0000  0.0000
  o =  0.8190  v =  0.0000  1.0000      0.0000  0.0000
atom =  20  type =  4  l = 0
 
 onsite density matrix
 
spin component  1
 
  0.8190
 
spin component  2
 
  0.8190
 
 occupancies and eigenvectors
 
  o =  0.8190  v =  1.0000  0.0000      0.0000  0.0000
  o =  0.8190  v =  0.0000  1.0000      0.0000  0.0000
atom =  21  type =  4  l = 0
 
 onsite density matrix
 
spin component  1
 
  0.8190
 
spin component  2
 
  0.8190
 
 occupancies and eigenvectors
 
  o =  0.8190  v =  1.0000  0.0000      0.0000  0.0000
  o =  0.8190  v =  0.0000  1.0000      0.0000  0.0000
atom =  22  type =  4  l = 0
 
 onsite density matrix
 
spin component  1
 
  0.8190
 
spin component  2
 
  0.8190
 
 occupancies and eigenvectors
 
  o =  0.8190  v =  1.0000  0.0000      0.0000  0.0000
  o =  0.8190  v =  0.0000  1.0000      0.0000  0.0000
atom =  23  type =  4  l = 0
 
 onsite density matrix
 
spin component  1
 
  0.8190
 
spin component  2
 
  0.8190
 
 occupancies and eigenvectors
 
  o =  0.8190  v =  1.0000  0.0000      0.0000  0.0000
  o =  0.8190  v =  0.0000  1.0000      0.0000  0.0000
atom =  24  type =  4  l = 0
 
 onsite density matrix
 
spin component  1
 
  0.8190
 
spin component  2
 
  0.8190
 
 occupancies and eigenvectors
 
  o =  0.8190  v =  1.0000  0.0000      0.0000  0.0000
  o =  0.8190  v =  0.0000  1.0000      0.0000  0.0000
atom =  25  type =  4  l = 0
 
 onsite density matrix
 
spin component  1
 
  0.8190
 
spin component  2
 
  0.8190
 
 occupancies and eigenvectors
 
  o =  0.8190  v =  1.0000  0.0000      0.0000  0.0000
  o =  0.8190  v =  0.0000  1.0000      0.0000  0.0000
atom =  26  type =  4  l = 0
 
 onsite density matrix
 
spin component  1
 
  0.8190
 
spin component  2
 
  0.8190
 
 occupancies and eigenvectors
 
  o =  0.8190  v =  1.0000  0.0000      0.0000  0.0000
  o =  0.8190  v =  0.0000  1.0000      0.0000  0.0000
atom =  27  type =  4  l = 0
 
 onsite density matrix
 
spin component  1
 
  0.8190
 
spin component  2
 
  0.8190
 
 occupancies and eigenvectors
 
  o =  0.8190  v =  1.0000  0.0000      0.0000  0.0000
  o =  0.8190  v =  0.0000  1.0000      0.0000  0.0000
atom =  28  type =  4  l = 0
 
 onsite density matrix
 
spin component  1
 
  0.8190
 
spin component  2
 
  0.8190
 
 occupancies and eigenvectors
 
  o =  0.8190  v =  1.0000  0.0000      0.0000  0.0000
  o =  0.8190  v =  0.0000  1.0000      0.0000  0.0000
atom =  29  type =  4  l = 0
 
 onsite density matrix
 
spin component  1
 
  0.8190
 
spin component  2
 
  0.8190
 
 occupancies and eigenvectors
 
  o =  0.8190  v =  1.0000  0.0000      0.0000  0.0000
  o =  0.8190  v =  0.0000  1.0000      0.0000  0.0000
atom =  30  type =  4  l = 0
 
 onsite density matrix
 
spin component  1
 
  0.8190
 
spin component  2
 
  0.8190
 
 occupancies and eigenvectors
 
  o =  0.8190  v =  1.0000  0.0000      0.0000  0.0000
  o =  0.8190  v =  0.0000  1.0000      0.0000  0.0000
     EDDAV:  cpu time    4.3080: real time    4.3297
 BZINTS: Fermi energy: 31.566056;222.000000 electrons
         Band energy:3331.462021;  BLOECHL correction: -0.234783
       DOS:  cpu time    0.0233: real time    0.0237
    --------------------------------------------
      LOOP:  cpu time    4.4321: real time    4.4568

 eigenvalue-minimisations  :  7448
 total energy-change (2. order) : 0.3572030E+04  (-0.7761359E+04)
 number of electron     222.0000000 magnetization      22.0000000
 augmentation part      222.0000000 magnetization      22.0000000

 Free energy of the ion-electron system (eV)
  ---------------------------------------------------
  alpha Z        PSCENC =       978.09411003
  Ewald energy   TEWEN  =    -15076.22335717
  -Hartree energ DENC   =     -3147.39147380
  -exchange      EXHF   =         0.00000000
  -V(xc)+E(xc)   XCENC  =       710.81569457
  PAW double counting   =     13644.53670636   -13669.90867429
  entropy T*S    EENTRO =         0.00000000
  eigenvalues    EBANDS =      3331.46202089
  atomic energy  EATOM  =     16800.64461370
  Solvation  Ediel_sol  =         0.00000000
  ---------------------------------------------------
  free energy    TOTEN  =      3572.02964028 eV

  energy without entropy =     3572.02964028  energy(sigma->0) =     3572.02964028


--------------------------------------------------------------------------------------------------------




--------------------------------------- Iteration      1(   2)  ---------------------------------------


     EDDAV:  cpu time    4.4064: real time    4.4283
 BZINTS: Fermi energy: 16.493755;222.000000 electrons
         Band energy:1003.854214;  BLOECHL correction: -0.059753
       DOS:  cpu time    0.0226: real time    0.0227
    --------------------------------------------
      LOOP:  cpu time    4.4290: real time    4.4510

 eigenvalue-minimisations  :  7752
 total energy-change (2. order) :-0.2327608E+04  (-0.2095251E+04)
 number of electron     222.0000000 magnetization      22.0000000
 augmentation part      222.0000000 magnetization      22.0000000

 Free energy of the ion-electron system (eV)
  ---------------------------------------------------
  alpha Z        PSCENC =       978.09411003
  Ewald energy   TEWEN  =    -15076.22335717
  -Hartree energ DENC   =     -3147.39147380
  -exchange      EXHF   =         0.00000000
  -V(xc)+E(xc)   XCENC  =       710.81569457
  PAW double counting   =     13644.53670636   -13669.90867429
  entropy T*S    EENTRO =         0.00000000
  eigenvalues    EBANDS =      1003.85421429
  atomic energy  EATOM  =     16800.64461370
  Solvation  Ediel_sol  =         0.00000000
  ---------------------------------------------------
  free energy    TOTEN  =      1244.42183368 eV

  energy without entropy =     1244.42183368  energy(sigma->0) =     1244.42183368


--------------------------------------------------------------------------------------------------------




--------------------------------------- Iteration      1(   3)  ---------------------------------------


     EDDAV:  cpu time    4.4507: real time    4.4715
 BZINTS: Fermi energy: 12.126905;222.000000 electrons
         Band energy:  34.015528;  BLOECHL correction: -0.049782
       DOS:  cpu time    0.0231: real time    0.0235
    --------------------------------------------
      LOOP:  cpu time    4.4738: real time    4.4950

 eigenvalue-minimisations  :  7856
 total energy-change (2. order) :-0.9698387E+03  (-0.8735330E+03)
 number of electron     222.0000000 magnetization      22.0000000
 augmentation part      222.0000000 magnetization      22.0000000

 Free energy of the ion-electron system (eV)
  ---------------------------------------------------
  alpha Z        PSCENC =       978.09411003
  Ewald energy   TEWEN  =    -15076.22335717
  -Hartree energ DENC   =     -3147.39147380
  -exchange      EXHF   =         0.00000000
  -V(xc)+E(xc)   XCENC  =       710.81569457
  PAW double counting   =     13644.53670636   -13669.90867429
  entropy T*S    EENTRO =         0.00000000
  eigenvalues    EBANDS =        34.01552827
  atomic energy  EATOM  =     16800.64461370
  Solvation  Ediel_sol  =         0.00000000
  ---------------------------------------------------
  free energy    TOTEN  =       274.58314766 eV

  energy without entropy =      274.58314766  energy(sigma->0) =      274.58314766


--------------------------------------------------------------------------------------------------------




--------------------------------------- Iteration      1(   4)  ---------------------------------------


     EDDAV:  cpu time    5.9283: real time    5.9574
 BZINTS: Fermi energy: 11.397569;222.000000 electrons
         Band energy:-402.372791;  BLOECHL correction: -0.007857
       DOS:  cpu time    0.0235: real time    0.0235
    --------------------------------------------
      LOOP:  cpu time    5.9518: real time    5.9810

 eigenvalue-minimisations  : 11176
 total energy-change (2. order) :-0.4363883E+03  (-0.4115378E+03)
 number of electron     222.0000000 magnetization      22.0000000
 augmentation part      222.0000000 magnetization      22.0000000

 Free energy of the ion-electron system (eV)
  ---------------------------------------------------
  alpha Z        PSCENC =       978.09411003
  Ewald energy   TEWEN  =    -15076.22335717
  -Hartree energ DENC   =     -3147.39147380
  -exchange      EXHF   =         0.00000000
  -V(xc)+E(xc)   XCENC  =       710.81569457
  PAW double counting   =     13644.53670636   -13669.90867429
  entropy T*S    EENTRO =         0.00000000
  eigenvalues    EBANDS =      -402.37279129
  atomic energy  EATOM  =     16800.64461370
  Solvation  Ediel_sol  =         0.00000000
  ---------------------------------------------------
  free energy    TOTEN  =      -161.80517190 eV

  energy without entropy =     -161.80517190  energy(sigma->0) =     -161.80517190


--------------------------------------------------------------------------------------------------------




--------------------------------------- Iteration      1(   5)  ---------------------------------------


     EDDAV:  cpu time    6.6483: real time    6.6757
 BZINTS: Fermi energy: 11.038891;222.000000 electrons
         Band energy:-495.693468;  BLOECHL correction: -0.047083
       DOS:  cpu time    0.0230: real time    0.0230
    CHARGE:  cpu time    0.1959: real time    0.1967
    MIXING:  cpu time    0.0034: real time    0.0036
    --------------------------------------------
      LOOP:  cpu time    6.8706: real time    6.8991

 eigenvalue-minimisations  : 12648
 total energy-change (2. order) :-0.9332068E+02  (-0.8999594E+02)
 number of electron     221.9999989 magnetization      20.2612468
 augmentation part       26.0603065 magnetization      14.5194361

 Broyden mixing:
  rms(total) = 0.71703E+01    rms(broyden)= 0.71698E+01
  rms(prec ) = 0.80201E+01
  weight for this iteration     100.00

 Free energy of the ion-electron system (eV)
  ---------------------------------------------------
  alpha Z        PSCENC =       978.09411003
  Ewald energy   TEWEN  =    -15076.22335717
  -Hartree energ DENC   =     -3147.39147380
  -exchange      EXHF   =         0.00000000
  -V(xc)+E(xc)   XCENC  =       710.81569457
  PAW double counting   =     13644.53670636   -13669.90867429
  entropy T*S    EENTRO =         0.00000000
  eigenvalues    EBANDS =      -495.69346850
  atomic energy  EATOM  =     16800.64461370
  Solvation  Ediel_sol  =         0.00000000
  ---------------------------------------------------
  free energy    TOTEN  =      -255.12584910 eV

  energy without entropy =     -255.12584910  energy(sigma->0) =     -255.12584910


--------------------------------------------------------------------------------------------------------




--------------------------------------- Iteration      1(   6)  ---------------------------------------


    POTLOK:  cpu time    0.0843: real time    0.0856
    SETDIJ:  cpu time    0.0136: real time    0.0137
atom =   1  type =  1  l = 0
 
 onsite density matrix
 
spin component  1
 
  1.0561
 
spin component  2
 
  1.0567
 
 occupancies and eigenvectors
 
  o =  1.0561  v =  1.0000  0.0000      0.0000  0.0000
  o =  1.0567  v =  0.0000  1.0000      0.0000  0.0000
atom =   2  type =  1  l = 0
 
 onsite density matrix
 
spin component  1
 
  1.0560
 
spin component  2
 
  1.0560
 
 occupancies and eigenvectors
 
  o =  1.0560  v =  1.0000  0.0000      0.0000  0.0000
  o =  1.0560  v =  0.0000  1.0000      0.0000  0.0000
atom =   3  type =  1  l = 0
 
 onsite density matrix
 
spin component  1
 
  1.0561
 
spin component  2
 
  1.0567
 
 occupancies and eigenvectors
 
  o =  1.0561  v =  1.0000  0.0000      0.0000  0.0000
  o =  1.0567  v =  0.0000  1.0000      0.0000  0.0000
atom =   4  type =  1  l = 0
 
 onsite density matrix
 
spin component  1
 
  1.0561
 
spin component  2
 
  1.0567
 
 occupancies and eigenvectors
 
  o =  1.0561  v =  1.0000  0.0000      0.0000  0.0000
  o =  1.0567  v =  0.0000  1.0000      0.0000  0.0000
atom =   5  type =  1  l = 0
 
 onsite density matrix
 
spin component  1
 
  1.0560
 
spin component  2
 
  1.0560
 
 occupancies and eigenvectors
 
  o =  1.0560  v =  1.0000  0.0000      0.0000  0.0000
  o =  1.0560  v =  0.0000  1.0000      0.0000  0.0000
atom =   6  type =  1  l = 0
 
 onsite density matrix
 
spin component  1
 
  1.0561
 
spin component  2
 
  1.0567
 
 occupancies and eigenvectors
 
  o =  1.0561  v =  1.0000  0.0000      0.0000  0.0000
  o =  1.0567  v =  0.0000  1.0000      0.0000  0.0000
atom =   7  type =  2  l = 2
 
 onsite density matrix
 
spin component  1
 
  0.9541  0.0000 -0.0000  0.0000  0.0000
  0.0000  0.9412  0.0000  0.0000 -0.0000
 -0.0000  0.0000  0.3665  0.0000  0.0000
  0.0000  0.0000  0.0000  0.9412  0.0000
  0.0000 -0.0000  0.0000  0.0000  0.4019
 
spin component  2
 
  0.0271 -0.0000  0.0000  0.0000 -0.0000
 -0.0000  0.0415 -0.0000 -0.0000  0.0000
  0.0000 -0.0000  0.4388 -0.0000 -0.0000
  0.0000 -0.0000 -0.0000  0.0415 -0.0000
 -0.0000  0.0000 -0.0000 -0.0000  0.4139
 
 occupancies and eigenvectors
 
  o =  0.0271  v =  0.0000  0.0000  0.0000  0.0000  0.0000  1.0000  0.0000  0.0000  0.0000  0.0000      0.0000  0.0000  0.0000  0.0000  0.0000  0.0000  0.0000  0.0000  0.0000  0.0000
  o =  0.0415  v =  0.0000  0.0000  0.0000  0.0000  0.0000  0.0000 -0.9954 -0.0000  0.0956 -0.0000      0.0000  0.0000  0.0000  0.0000  0.0000  0.0000  0.0000  0.0000  0.0000  0.0000
  o =  0.0415  v =  0.0000  0.0000  0.0000  0.0000  0.0000  0.0000 -0.0956  0.0000 -0.9954  0.0000      0.0000  0.0000  0.0000  0.0000  0.0000  0.0000  0.0000  0.0000  0.0000  0.0000
  o =  0.3665  v =  0.0000  0.0000  1.0000  0.0000  0.0000  0.0000  0.0000  0.0000  0.0000  0.0000      0.0000  0.0000  0.0000  0.0000  0.0000  0.0000  0.0000  0.0000  0.0000  0.0000
  o =  0.4019  v =  0.0000 -0.0000 -0.0000  0.0000  1.0000  0.0000  0.0000  0.0000  0.0000  0.0000      0.0000  0.0000  0.0000  0.0000  0.0000  0.0000  0.0000  0.0000  0.0000  0.0000
  o =  0.4139  v =  0.0000  0.0000  0.0000  0.0000  0.0000  0.0000  0.0000 -0.0000 -0.0000  1.0000      0.0000  0.0000  0.0000  0.0000  0.0000  0.0000  0.0000  0.0000  0.0000  0.0000
  o =  0.4388  v =  0.0000  0.0000  0.0000  0.0000  0.0000  0.0000  0.0000  1.0000 -0.0000  0.0000      0.0000  0.0000  0.0000  0.0000  0.0000  0.0000  0.0000  0.0000  0.0000  0.0000
[...]
 -0.000  -0.001  -0.000  -0.001  -0.000   0.000  -0.001  -0.000   0.000   0.000  -0.000  -0.000   0.000  -0.000   0.000  -0.000
  0.000   0.000   0.000   0.000   0.000   0.000   0.000   0.000  -0.000   0.000   0.000  -0.000  -0.000   0.000   0.000   0.000
  0.000   0.000   0.000  -0.000  -0.000   0.000   0.000   0.000   0.000  -0.000  -0.000   0.000  -0.001   0.000  -0.000   0.000
  0.000   0.000  -0.000   0.000  -0.000  -0.000   0.000  -0.001   0.000   0.000   0.000  -0.001   0.000   0.000  -0.000   0.000
  0.000   0.000   0.000   0.000   0.000  -0.001   0.000  -0.000   0.000  -0.002   0.000   0.000   0.000   0.000   0.001  -0.000
 -0.000   0.008   0.000   0.000   0.000   0.000  -0.001   0.000  -0.003   0.000   0.000   0.000   0.000   0.001   0.000  -0.000
  0.000  -0.000   0.000  -0.000  -0.000  -0.001   0.000  -0.000   0.000   0.000  -0.000  -0.001   0.000   0.000  -0.000  -0.000
  0.000   0.001  -0.000  -0.000   0.000  -0.000   0.001  -0.000  -0.000   0.000   0.000  -0.000   0.000   0.000   0.000  -0.000
  0.000   0.000  -0.000  -0.000   0.000  -0.000   0.000  -0.001   0.000  -0.001   0.000   0.000  -0.000   0.000   0.000   0.000
  0.000   0.000   0.000   0.000   0.000   0.000  -0.000  -0.000   0.000   0.000  -0.000  -0.000   0.003   0.000  -0.000  -0.000
  0.000   0.000  -0.000  -0.000  -0.000   0.000  -0.000   0.001   0.000  -0.000  -0.000   0.002   0.000  -0.000   0.000   0.000


------------------------ aborting loop because EDIFF is reached ----------------------------------------


 


 total charge     
 
# of ion       s       p       d       f       tot
--------------------------------------------------
    1        1.999   5.698   0.486   0.190   8.374
    2        1.999   5.695   0.483   0.182   8.359
    3        1.999   5.698   0.486   0.190   8.374
    4        1.999   5.697   0.489   0.189   8.375
    5        1.998   5.697   0.472   0.189   8.356
    6        2.000   5.697   0.489   0.189   8.375
    7        0.337   0.521   4.864   0.000   5.721
    8        0.348   0.550   4.881   0.000   5.779
    9        0.348   0.550   4.881   0.000   5.779
   10        0.316   0.480   4.902   0.000   5.698
   11        0.384   0.547   8.319   0.000   9.250
   12        0.384   0.547   8.319   0.000   9.250
   13        1.567   3.453   0.000   0.000   5.020
   14        1.559   3.454   0.000   0.000   5.014
   15        1.565   3.465   0.000   0.000   5.030
   16        1.553   3.452   0.000   0.000   5.005
   17        1.565   3.465   0.000   0.000   5.030
   18        1.559   3.454   0.000   0.000   5.014
   19        1.561   3.463   0.000   0.000   5.023
   20        1.566   3.469   0.000   0.000   5.035
   21        1.561   3.462   0.000   0.000   5.023
   22        1.561   3.463   0.000   0.000   5.023
   23        1.566   3.467   0.000   0.000   5.033
   24        1.561   3.462   0.000   0.000   5.023
   25        1.560   3.459   0.000   0.000   5.019
   26        1.563   3.448   0.000   0.000   5.011
   27        1.560   3.459   0.000   0.000   5.019
   28        1.560   3.459   0.000   0.000   5.019
   29        1.563   3.447   0.000   0.000   5.010
   30        1.560   3.459   0.000   0.000   5.019
--------------------------------------------------
tot         42.222  99.639  39.069   1.129 182.059

 


 magnetization (x)
 
# of ion       s       p       d       f       tot
--------------------------------------------------
    1        0.001   0.001   0.011   0.006   0.018
    2        0.000   0.001   0.006   0.003   0.010
    3        0.001   0.001   0.011   0.006   0.018
    4        0.001   0.001   0.011   0.005   0.018
    5        0.000  -0.000   0.007   0.003   0.010
    6        0.001   0.001   0.011   0.005   0.018
    7        0.026   0.029   3.512   0.000   3.567
    8        0.026   0.035   3.423   0.000   3.484
    9        0.026   0.035   3.423   0.000   3.484
   10        0.022   0.023   3.764   0.000   3.809
   11        0.008  -0.001   1.711   0.000   1.718
   12        0.008  -0.001   1.711   0.000   1.718
   13        0.007  -0.055   0.000   0.000  -0.048
   14        0.004  -0.012   0.000   0.000  -0.008
   15        0.006  -0.038   0.000   0.000  -0.032
   16        0.007   0.045   0.000   0.000   0.052
   17        0.006  -0.038   0.000   0.000  -0.032
   18        0.004  -0.012   0.000   0.000  -0.008
   19        0.005  -0.007   0.000   0.000  -0.002
   20        0.007  -0.036   0.000   0.000  -0.029
   21        0.005  -0.007   0.000   0.000  -0.002
   22        0.005  -0.007   0.000   0.000  -0.002
   23        0.007  -0.037   0.000   0.000  -0.030
   24        0.005  -0.007   0.000   0.000  -0.002
   25        0.004  -0.002   0.000   0.000   0.002
   26        0.004  -0.045   0.000   0.000  -0.042
   27        0.004  -0.002   0.000   0.000   0.002
   28        0.004  -0.002   0.000   0.000   0.002
   29        0.004  -0.046   0.000   0.000  -0.043
   30        0.004  -0.002   0.000   0.000   0.002
--------------------------------------------------
tot          0.212  -0.187  17.600   0.027  17.652

 
    CHARGE:  cpu time    0.2028: real time    0.2038
    FORLOC:  cpu time    0.0116: real time    0.0117
    FORNL :  cpu time    1.1804: real time    1.1861
    STRESS:  cpu time    3.5642: real time    3.5773
    FORCOR:  cpu time    0.0914: real time    0.0917
    FORHAR:  cpu time    0.0193: real time    0.0194
    MIXING:  cpu time    0.0051: real time    0.0051
    OFIELD:  cpu time    0.0001: real time    0.0002

  FORCE on cell =-STRESS in cart. coord.  units (eV):
  Direction    XX          YY          ZZ          XY          YZ          ZX
  --------------------------------------------------------------------------------------
  Alpha Z   978.09411   978.09411   978.09411
  Ewald   -5004.03347 -5004.03347 -5068.21026    -0.00000    -0.00000     0.00000
  Hartree  1095.20854  1095.20854  1049.10899    -0.00000    -0.00000     0.00000
  E(xc)   -1026.14224 -1026.14224 -1026.04062    -0.00000     0.00000    -0.00000
  Local    -624.52958  -624.52958  -517.54994     0.00000     0.00000    -0.00000
  n-local   403.07076   402.87466   403.07965    -1.93692     0.00053    -0.00100
  augment   343.65813   343.65813   345.36439     0.00000    -0.00000     0.00000
  Kinetic  3832.97299  3837.53851  3837.39243   -13.37208     0.00149     0.00044
  Fock        0.00000     0.00000     0.00000     0.00000     0.00000     0.00000
  -------------------------------------------------------------------------------------
  Total       0.48396     0.48396     1.23877    -0.00000     0.00000     0.00000
  in kB       2.18614     2.18614     5.59576    -0.00000     0.00000     0.00000
  external pressure =        3.32 kB  Pullay stress =        0.00 kB


 VOLUME and BASIS-vectors are now :
 -----------------------------------------------------------------------------
  energy-cutoff  :      520.00
  volume of cell :      354.68
      direct lattice vectors                 reciprocal lattice vectors
     3.891686983  3.891686983  0.000000000     0.128478987  0.128478987  0.000000000
     3.891686983 -3.891686983  0.000000000     0.128478987 -0.128478987  0.000000000
     0.000000000  0.000000000-11.709401403     0.000000000  0.000000000 -0.085401462

  length of vectors
     5.503676512  5.503676512 11.709401403     0.181696725  0.181696725  0.085401462


 FORCES acting on ions
    electron-ion (+dipol)            ewald-force                    non-local-force                 convergence-correction
 -----------------------------------------------------------------------------------------------
   0.190E-12 -.199E-12 -.832E+02   -.391E-13 0.164E-13 0.824E+02   0.271E-19 0.000E+00 0.541E+00   0.820E-16 -.411E-13 0.146E+00
   -.271E-13 -.856E-14 0.676E-03   -.977E-14 0.711E-14 0.316E-03   -.136E-19 0.678E-19 0.000E+00   0.290E-13 0.379E-13 -.144E-04
   0.618E-14 -.184E-13 0.832E+02   -.140E-13 0.711E-14 -.824E+02   0.000E+00 0.271E-19 -.541E+00   0.583E-14 0.116E-13 -.146E+00
   0.264E-13 -.427E-13 -.832E+02   -.304E-13 -.304E-13 0.824E+02   -.122E-18 -.149E-18 0.541E+00   0.470E-13 0.383E-13 0.146E+00
   0.124E-11 -.125E-11 0.676E-03   0.613E-13 -.711E-14 0.316E-03   -.108E-18 -.407E-19 -.108E-18   0.149E-13 -.342E-13 -.144E-04
   0.453E-13 -.521E-13 0.832E+02   0.538E-13 0.213E-13 -.824E+02   0.542E-19 -.542E-19 -.541E+00   0.111E-13 -.859E-14 -.146E+00
   0.118E-12 0.122E-12 -.148E-03   0.950E-13 -.173E-13 0.375E-03   0.000E+00 -.271E-19 0.000E+00   -.955E-14 -.159E-13 0.902E-06
   0.174E-12 -.183E-12 -.133E+02   -.409E-13 -.143E-13 0.133E+02   -.169E-20 -.169E-20 -.139E+00   0.240E-13 -.571E-15 0.490E-01
   0.140E-12 -.138E-12 0.133E+02   -.568E-13 -.563E-13 -.133E+02   0.000E+00 0.000E+00 0.139E+00   0.736E-15 -.144E-13 -.490E-01
   0.199E-12 -.190E-12 -.133E-03   0.790E-13 0.805E-13 0.359E-03   0.000E+00 0.000E+00 0.000E+00   -.156E-13 0.115E-13 0.910E-06
   0.596E-12 0.843E-12 -.391E+02   -.195E-13 -.506E-13 0.367E+02   -.508E-20 0.000E+00 0.226E+01   -.908E-13 -.671E-13 0.942E-01
   0.457E-12 0.976E-12 0.391E+02   0.284E-13 0.295E-13 -.367E+02   -.169E-20 -.169E-20 -.226E+01   -.447E-13 0.155E-14 -.942E-01
   0.152E-12 -.153E-12 0.589E-03   0.142E-13 0.115E-13 0.346E-03   0.847E-21 0.593E-20 0.271E-19   0.199E-13 -.957E-14 -.901E-05
   -.607E-13 0.414E-12 -.643E+02   -.139E-13 -.124E-13 0.595E+02   0.000E+00 0.339E-20 0.480E+01   -.360E-13 -.219E-13 0.907E-01
   0.186E-12 -.181E-12 0.385E+02   -.355E-13 -.731E-14 -.383E+02   -.847E-20 0.847E-20 -.273E+00   -.368E-14 -.456E-14 -.152E+00
   0.181E-12 0.178E-12 0.500E-03   0.249E-13 0.260E-13 0.422E-03   0.000E+00 0.000E+00 0.000E+00   -.385E-13 -.110E-13 -.903E-05
   0.123E-12 -.134E-12 -.385E+02   0.522E-14 0.983E-14 0.383E+02   0.102E-19 -.339E-20 0.273E+00   0.220E-13 0.113E-13 0.152E+00
   -.453E-14 0.353E-12 0.643E+02   -.178E-13 -.620E-14 -.595E+02   0.169E-20 -.169E-20 -.480E+01   0.961E-14 -.586E-15 -.906E-01
   0.373E-07 -.325E+02 -.150E+02   -.174E-13 0.273E+02 0.144E+02   0.000E+00 0.523E+01 0.635E+00   -.202E-13 -.280E-01 0.526E-01
   0.117E-11 0.696E+01 0.655E-03   -.450E-13 -.748E+01 0.214E-03   0.000E+00 0.621E+00 -.178E-19   0.359E-14 -.159E-01 0.658E-06
   -.373E-07 -.325E+02 0.150E+02   -.320E-13 0.273E+02 -.144E+02   0.000E+00 0.523E+01 -.635E+00   0.591E-14 -.280E-01 -.526E-01
   0.373E-07 0.325E+02 -.150E+02   0.392E-13 -.273E+02 0.144E+02   0.000E+00 -.523E+01 0.635E+00   -.221E-13 0.280E-01 0.526E-01
   0.281E-11 -.696E+01 0.655E-03   0.695E-13 0.748E+01 0.214E-03   0.000E+00 -.621E+00 0.000E+00   -.189E-13 0.159E-01 0.658E-06
   -.373E-07 0.325E+02 0.150E+02   0.346E-13 -.273E+02 -.144E+02   0.000E+00 -.523E+01 -.635E+00   -.216E-13 0.280E-01 -.526E-01
   -.325E+02 0.133E-11 -.150E+02   0.273E+02 0.114E-14 0.144E+02   0.523E+01 0.000E+00 0.635E+00   -.280E-01 -.216E-13 0.526E-01
   0.696E+01 0.563E-12 0.654E-03   -.748E+01 -.278E-14 0.214E-03   0.621E+00 0.000E+00 -.119E-19   -.159E-01 0.585E-14 0.658E-06
   -.325E+02 -.145E-11 0.150E+02   0.273E+02 -.146E-13 -.144E+02   0.523E+01 0.000E+00 -.635E+00   -.280E-01 -.432E-14 -.526E-01
   0.325E+02 0.547E-12 -.150E+02   -.273E+02 -.625E-14 0.144E+02   -.523E+01 0.000E+00 0.635E+00   0.280E-01 0.114E-14 0.526E-01
   -.696E+01 -.839E-12 0.656E-03   0.748E+01 0.732E-14 0.214E-03   -.621E+00 0.000E+00 0.000E+00   0.159E-01 -.366E-13 0.658E-06
   0.325E+02 0.160E-12 0.150E+02   -.273E+02 -.187E-13 -.144E+02   -.523E+01 0.000E+00 -.635E+00   0.280E-01 -.283E-13 -.526E-01
 -----------------------------------------------------------------------------------------------
   0.758E-11 0.269E-11 0.518E-02   -.355E-13 0.265E-13 -.817E-13   -.888E-15 0.000E+00 0.200E-14   -.564E-13 -.252E-12 0.263E-05
 
 
 POSITION                                       TOTAL-FORCE (eV/Angst)
 -----------------------------------------------------------------------------------
      3.89169      0.00000     -3.95398         0.000000     -0.000000     -0.149690
      0.00000      0.00000     -7.80627         0.000000      0.000000     -0.000000
      3.89169      0.00000    -11.65856         0.000000     -0.000000      0.149690
      0.00000      0.00000     -3.95398         0.000000     -0.000000     -0.149690
      3.89169      0.00000     -7.80627         0.000000      0.000000     -0.000000
      0.00000      0.00000    -11.65856         0.000000     -0.000000      0.149690
      1.94584      1.94584     -1.95157         0.000000      0.000000     -0.000000
      1.94584     -1.94584     -5.84984         0.000000     -0.000000     -0.090042
      1.94584     -1.94584     -9.76270         0.000000      0.000000      0.090042
      1.94584     -1.94584     -1.95157         0.000000      0.000000     -0.000000
      1.94584      1.94584     -5.86000         0.000000     -0.000000     -0.006067
      1.94584      1.94584     -9.75254         0.000000     -0.000000      0.006067
      1.94584     -1.94584     -7.80627         0.000000      0.000000     -0.000000
      1.94584      1.94584     -3.86663         0.000000      0.000000      0.054806
      1.94584     -1.94584     -0.00334         0.000000      0.000000     -0.271366
      1.94584      1.94584     -7.80627         0.000000      0.000000     -0.000000
      1.94584     -1.94584     -3.89980         0.000000      0.000000      0.271366
      1.94584      1.94584     -0.03650         0.000000     -0.000000     -0.054806
      5.83753      0.04313     -5.83713         0.000000     -0.048173      0.041552
      1.94584      0.00463     -1.95157         0.000000      0.083669     -0.000000
      5.83753      0.04313     -9.77541         0.000000     -0.048173     -0.041552
      1.94584     -0.04313     -5.83713         0.000000      0.048173      0.041552
      5.83753     -0.00463     -1.95157         0.000000     -0.083669     -0.000000
      1.94584     -0.04313     -9.77541         0.000000      0.048173     -0.041552
      3.93481      1.94584     -5.83713        -0.048173      0.000000      0.041552
      3.89631     -1.94584     -1.95157         0.083669      0.000000     -0.000000
      3.93481      1.94584     -9.77541        -0.048173      0.000000     -0.041552
      3.84856     -1.94584     -5.83713         0.048173      0.000000      0.041552
      3.88706      1.94584     -1.95157        -0.083669      0.000000     -0.000000
      3.84856     -1.94584     -9.77541         0.048173      0.000000     -0.041552
 -----------------------------------------------------------------------------------
    total drift:                                0.000000      0.000000      0.005187


--------------------------------------------------------------------------------------------------------



  FREE ENERGIE OF THE ION-ELECTRON SYSTEM (eV)
  ---------------------------------------------------
  free  energy   TOTEN  =      -226.81605700 eV

  energy  without entropy=     -226.81605700  energy(sigma->0) =     -226.81605700
 


--------------------------------------------------------------------------------------------------------


    POTLOK:  cpu time    0.0936: real time    0.0939


--------------------------------------------------------------------------------------------------------


     LOOP+:  cpu time  109.1027: real time  109.6329
    4ORBIT:  cpu time    0.0000: real time    0.0000
 


 total charge     
 
# of ion       s       p       d       f       tot
--------------------------------------------------
    1        1.999   5.698   0.486   0.190   8.374
    2        1.999   5.695   0.483   0.182   8.359
    3        1.999   5.698   0.486   0.190   8.374
    4        1.999   5.697   0.489   0.189   8.375
    5        1.998   5.697   0.472   0.189   8.356
    6        2.000   5.697   0.489   0.189   8.375
    7        0.337   0.521   4.864   0.000   5.721
    8        0.348   0.550   4.881   0.000   5.779
    9        0.348   0.550   4.881   0.000   5.779
   10        0.316   0.480   4.902   0.000   5.698
   11        0.384   0.547   8.319   0.000   9.250
   12        0.384   0.547   8.319   0.000   9.250
   13        1.567   3.453   0.000   0.000   5.020
   14        1.559   3.454   0.000   0.000   5.014
   15        1.565   3.465   0.000   0.000   5.030
   16        1.553   3.452   0.000   0.000   5.005
   17        1.565   3.465   0.000   0.000   5.030
   18        1.559   3.454   0.000   0.000   5.014
   19        1.561   3.463   0.000   0.000   5.023
   20        1.566   3.469   0.000   0.000   5.035
   21        1.561   3.462   0.000   0.000   5.023
   22        1.561   3.463   0.000   0.000   5.023
   23        1.566   3.467   0.000   0.000   5.033
   24        1.561   3.462   0.000   0.000   5.023
   25        1.560   3.459   0.000   0.000   5.019
   26        1.563   3.448   0.000   0.000   5.011
   27        1.560   3.459   0.000   0.000   5.019
   28        1.560   3.459   0.000   0.000   5.019
   29        1.563   3.447   0.000   0.000   5.010
   30        1.560   3.459   0.000   0.000   5.019
--------------------------------------------------
tot         42.222  99.639  39.069   1.129 182.059

 


 magnetization (x)
 
# of ion       s       p       d       f       tot
--------------------------------------------------
    1        0.001   0.001   0.011   0.006   0.018
    2        0.000   0.001   0.006   0.003   0.010
    3        0.001   0.001   0.011   0.006   0.018
    4        0.001   0.001   0.011   0.005   0.018
    5        0.000  -0.000   0.007   0.003   0.010
    6        0.001   0.001   0.011   0.005   0.018
    7        0.026   0.029   3.512   0.000   3.567
    8        0.026   0.035   3.423   0.000   3.484
    9        0.026   0.035   3.423   0.000   3.484
   10        0.022   0.023   3.764   0.000   3.809
   11        0.008  -0.001   1.711   0.000   1.718
   12        0.008  -0.001   1.711   0.000   1.718
   13        0.007  -0.055   0.000   0.000  -0.048
   14        0.004  -0.012   0.000   0.000  -0.008
   15        0.006  -0.038   0.000   0.000  -0.032
   16        0.007   0.045   0.000   0.000   0.052
   17        0.006  -0.038   0.000   0.000  -0.032
   18        0.004  -0.012   0.000   0.000  -0.008
   19        0.005  -0.007   0.000   0.000  -0.002
   20        0.007  -0.036   0.000   0.000  -0.029
   21        0.005  -0.007   0.000   0.000  -0.002
   22        0.005  -0.007   0.000   0.000  -0.002
   23        0.007  -0.037   0.000   0.000  -0.030
   24        0.005  -0.007   0.000   0.000  -0.002
   25        0.004  -0.002   0.000   0.000   0.002
   26        0.004  -0.045   0.000   0.000  -0.042
   27        0.004  -0.002   0.000   0.000   0.002
   28        0.004  -0.002   0.000   0.000   0.002
   29        0.004  -0.046   0.000   0.000  -0.043
   30        0.004  -0.002   0.000   0.000   0.002
--------------------------------------------------
tot          0.212  -0.187  17.600   0.027  17.652

 
 BZINTS: Fermi energy:  8.003953;222.000000 electrons
         Band energy:-364.415351;  BLOECHL correction: -0.071803

 total amount of memory used by VASP MPI-rank0    77827. kBytes
=======================================================================

   base      :      30000. kBytes
   nonlr-proj:       7072. kBytes
   fftplans  :       3030. kBytes
   grid      :       8843. kBytes
   one-center:        294. kBytes
   wavefun   :      28588. kBytes
 
  
  
 General timing and accounting informations for this job:
 ========================================================
  
                  Total CPU time used (sec):      119.217
                            User time (sec):      115.232
                          System time (sec):        3.985
                         Elapsed time (sec):      119.934
  
                   Maximum memory used (kb):      129764.
                   Average memory used (kb):           0.
  
                          Minor page faults:        44798
                          Major page faults:            0
                 Voluntary context switches:         1466
