       N       E                     dE             d eps       ncg     rms          rms(c)
DAV:   1     0.358507339503E+04    0.35851E+04   -0.78239E+04  7530   0.245E+03
DAV:   2     0.124745735120E+04   -0.23376E+04   -0.21055E+04  7776   0.638E+02
DAV:   3     0.274259088843E+03   -0.97320E+03   -0.86998E+03  7768   0.328E+02
DAV:   4    -0.158392545892E+03   -0.43265E+03   -0.40782E+03 11208   0.181E+02
DAV:   5    -0.249120826298E+03   -0.90728E+02   -0.87034E+02 12754   0.980E+01    0.759E+01
RMM:   6    -0.224428891444E+03    0.24692E+02   -0.73195E+02 11751   0.107E+02    0.103E+02
RMM:   7    -0.223821561852E+03    0.60733E+00   -0.14056E+02 12439   0.358E+01    0.445E+01
RMM:   8    -0.217239802497E+03    0.65818E+01   -0.60741E+01  9244   0.391E+01    0.219E+01
RMM:   9    -0.220008280075E+03   -0.27685E+01   -0.30483E+01 11491   0.168E+01    0.193E+01
RMM:  10    -0.220439991813E+03   -0.43171E+00   -0.69553E+00 12797   0.672E+00    0.112E+01
RMM:  11    -0.220347558242E+03    0.92434E-01   -0.28476E+00 12397   0.475E+00    0.594E+00
RMM:  12    -0.220413821548E+03   -0.66263E-01   -0.15366E+00 12745   0.334E+00    0.415E+00
RMM:  13    -0.220449336877E+03   -0.35515E-01   -0.43140E-01 12481   0.178E+00    0.218E+00
RMM:  14    -0.220474703573E+03   -0.25367E-01   -0.18865E-01 12333   0.109E+00    0.183E+00
RMM:  15    -0.220478633731E+03   -0.39302E-02   -0.69350E-02 11024   0.720E-01    0.935E-01
RMM:  16    -0.220479292799E+03   -0.65907E-03   -0.41219E-02 10353   0.507E-01    0.528E-01
RMM:  17    -0.220481352124E+03   -0.20593E-02   -0.31286E-02  9980   0.516E-01    0.187E-01
RMM:  18    -0.220482182702E+03   -0.83058E-03   -0.11181E-02  7379   0.342E-01    0.137E-01
RMM:  19    -0.220482820811E+03   -0.63811E-03   -0.70165E-03  6820   0.293E-01
   1 F= -.22048282E+03 E0= -.22048282E+03  d E =0.000000E+00  mag=    14.9997
