 vasp.5.4.4.18Apr17-6-g9f103f2a35 (build Oct 03 2018 13:58:34) complex          
  
 executed on             LinuxIFC date 2019.06.04  02:05:09
 running on   40 total cores
 distrk:  each k-point on   20 cores,    2 groups
 distr:  one band on NCORES_PER_BAND=  10 cores,    2 groups


--------------------------------------------------------------------------------------------------------


 INCAR:
 POTCAR:    PAW_PBE La 06Sep2000                  
 POTCAR:    PAW_PBE Mn 06Sep2000                  
 POTCAR:    PAW_PBE Ni 02Aug2007                  
 POTCAR:    PAW_PBE O 08Apr2002                   

 ----------------------------------------------------------------------------- 
|                                                                             |
|           W    W    AA    RRRRR   N    N  II  N    N   GGGG   !!!           |
|           W    W   A  A   R    R  NN   N  II  NN   N  G    G  !!!           |
|           W    W  A    A  R    R  N N  N  II  N N  N  G       !!!           |
|           W WW W  AAAAAA  RRRRR   N  N N  II  N  N N  G  GGG   !            |
|           WW  WW  A    A  R   R   N   NN  II  N   NN  G    G                |
|           W    W  A    A  R    R  N    N  II  N    N   GGGG   !!!           |
|                                                                             |
|      You have enabled k-point parallelism (KPAR>1).                         |
|      This developmental code was originally  written by Paul Kent at ORNL,  |
|      and carefully double checked in Vienna.                                |
|      GW as well as linear response parallelism added by Martijn Marsman     |
|      and Georg Kresse.                                                      |
|      Carefully verify results versus KPAR=1.                                |
|      Report problems to Paul Kent and Vienna.                               |
|                                                                             |
 ----------------------------------------------------------------------------- 

 POTCAR:    PAW_PBE La 06Sep2000                  
   VRHFIN =La : [core=Kr4d]                                                     
   LEXCH  = PE                                                                  
   EATOM  =   865.9763 eV,   63.6475 Ry                                         
                                                                                
   TITEL  = PAW_PBE La 06Sep2000                                                
   LULTRA =        F    use ultrasoft PP ?                                      
   IUNSCR =        1    unscreen: 0-lin 1-nonlin 2-no                           
   RPACOR =    2.300    partial core radius                                     
   POMASS =  138.900; ZVAL   =   11.000    mass and valenz                      
   RCORE  =    2.800    outmost cutoff radius                                   
   RWIGS  =    2.900; RWIGS  =    1.535    wigner-seitz radius (au A)           
   ENMAX  =  219.292; ENMIN  =  164.469 eV                                      
   RCLOC  =    1.601    cutoff for local pot                                    
   LCOR   =        T    correct aug charges                                     
   LPAW   =        T    paw PP                                                  
   EAUG   =  583.575                                                            
   DEXC   =    0.000                                                            
   RMAX   =    2.853    core radius for proj-oper                               
   RAUG   =    1.300    factor for augmentation sphere                          
   RDEP   =    2.802    radius for radial grids                                 
   RDEPT  =    2.156    core radius for aug-charge                              
                                                                                
   Atomic configuration                                                         
   14 entries                                                                   
     n  l   j            E        occ.                                          
     1  0  0.50    -38741.0879   2.0000                                         
     2  0  0.50     -6166.6801   2.0000                                         
     2  1  1.50     -5526.1593   6.0000                                         
     3  0  0.50     -1319.0200   2.0000                                         
     3  1  1.50     -1114.5963   6.0000                                         
     3  2  2.50      -821.1793  10.0000                                         
     4  0  0.50      -266.3851   2.0000                                         
     4  1  1.50      -199.9276   6.0000                                         
     4  2  2.50      -103.8239  10.0000                                         
     5  0  0.50       -38.9172   2.0000                                         
     6  0  0.50        -3.6792   2.0000                                         
     5  1  1.50       -22.3948   6.0000                                         
     5  2  2.50        -3.0911   0.9999                                         
     4  3  2.50        -4.3603   0.0001                                         
   Description                                                                  
     l       E           TYP  RCUT    TYP  RCUT                                 
     0    -38.9171645     23  2.800                                             
     0     -3.6792381     23  2.800                                             
     1    -22.3948300     23  2.500                                             
     1     27.2116520     23  2.500                                             
     2     -3.0910934     23  2.500                                             
     2      1.0119135     23  2.500                                             
     3     -4.3602911     23  2.800                                             
     3     -5.7208737     23  2.800                                             
  local pseudopotential read in
  partial core-charges read in
  partial kinetic energy density read in
  atomic valenz-charges read in
  non local Contribution for L=           0  read in
    real space projection operators read in
  non local Contribution for L=           0  read in
    real space projection operators read in
  non local Contribution for L=           1  read in
    real space projection operators read in
  non local Contribution for L=           1  read in
    real space projection operators read in
  non local Contribution for L=           2  read in
    real space projection operators read in
  non local Contribution for L=           2  read in
    real space projection operators read in
  non local Contribution for L=           3  read in
    real space projection operators read in
  non local Contribution for L=           3  read in
    real space projection operators read in
    PAW grid and wavefunctions read in
 
   number of l-projection  operators is LMAX  =           8
   number of lm-projection operators is LMMAX =          32
 
 POTCAR:    PAW_PBE Mn 06Sep2000                  
   VRHFIN =Mn: d6 s1                                                            
   LEXCH  = PE                                                                  
   EATOM  =   416.7541 eV,   30.6306 Ry                                         
                                                                                
   TITEL  = PAW_PBE Mn 06Sep2000                                                
   LULTRA =        F    use ultrasoft PP ?                                      
   IUNSCR =        1    unscreen: 0-lin 1-nonlin 2-no                           
   RPACOR =    2.000    partial core radius                                     
   POMASS =   54.938; ZVAL   =    7.000    mass and valenz                      
   RCORE  =    2.300    outmost cutoff radius                                   
   RWIGS  =    2.500; RWIGS  =    1.323    wigner-seitz radius (au A)           
   ENMAX  =  269.864; ENMIN  =  202.398 eV                                      
   RCLOC  =    1.725    cutoff for local pot                                    
   LCOR   =        T    correct aug charges                                     
   LPAW   =        T    paw PP                                                  
   EAUG   =  500.711                                                            
   DEXC   =    0.000                                                            
   RMAX   =    2.343    core radius for proj-oper                               
   RAUG   =    1.300    factor for augmentation sphere                          
   RDEP   =    2.338    radius for radial grids                                 
   RDEPT  =    1.911    core radius for aug-charge                              
                                                                                
   Atomic configuration                                                         
    9 entries                                                                   
     n  l   j            E        occ.                                          
     1  0  0.50     -6424.8288   2.0000                                         
     2  0  0.50      -739.1154   2.0000                                         
     2  1  1.50      -625.3949   6.0000                                         
     3  0  0.50       -81.6100   2.0000                                         
     3  1  1.50       -50.4667   6.0000                                         
     3  2  2.50        -3.3745   6.0000                                         
     4  0  0.50        -4.1331   1.0000                                         
     4  1  0.50        -4.0817   0.0000                                         
     4  3  2.50        -1.3606   0.0000                                         
   Description                                                                  
     l       E           TYP  RCUT    TYP  RCUT                                 
     2     -3.3744664     23  2.300                                             
     2     -4.7350490     23  2.300                                             
     0     -4.1331408     23  2.300                                             
     0      7.6656614     23  2.300                                             
     1     -2.7211652     23  2.300                                             
     1     20.4087390     23  2.300                                             
  local pseudopotential read in
  partial core-charges read in
  partial kinetic energy density read in
  atomic valenz-charges read in
  non local Contribution for L=           2  read in
    real space projection operators read in
  non local Contribution for L=           2  read in
    real space projection operators read in
  non local Contribution for L=           0  read in
    real space projection operators read in
  non local Contribution for L=           0  read in
    real space projection operators read in
  non local Contribution for L=           1  read in
    real space projection operators read in
  non local Contribution for L=           1  read in
    real space projection operators read in
    PAW grid and wavefunctions read in
 
   number of l-projection  operators is LMAX  =           6
   number of lm-projection operators is LMMAX =          18
 
 POTCAR:    PAW_PBE Ni 02Aug2007                  
   VRHFIN =Ni:                                                                  
   LEXCH  = PE                                                                  
   EATOM  =  1077.6739 eV,   79.2068 Ry                                         
                                                                                
   TITEL  = PAW_PBE Ni 02Aug2007                                                
   LULTRA =        F    use ultrasoft PP ?                                      
   IUNSCR =        1    unscreen: 0-lin 1-nonlin 2-no                           
   RPACOR =    2.000    partial core radius                                     
   POMASS =   58.690; ZVAL   =   10.000    mass and valenz                      
   RCORE  =    2.300    outmost cutoff radius                                   
   RWIGS  =    2.430; RWIGS  =    1.286    wigner-seitz radius (au A)           
   ENMAX  =  269.532; ENMIN  =  202.149 eV                                      
   RCLOC  =    1.201    cutoff for local pot                                    
   LCOR   =        T    correct aug charges                                     
   LPAW   =        T    paw PP                                                  
   EAUG   =  544.565                                                            
   DEXC   =    0.000                                                            
   RMAX   =    2.357    core radius for proj-oper                               
   RAUG   =    1.300    factor for augmentation sphere                          
   RDEP   =    2.390    radius for radial grids                                 
   RDEPT  =    1.838    core radius for aug-charge                              
                                                                                
   Atomic configuration                                                         
    9 entries                                                                   
     n  l   j            E        occ.                                          
     1  0  0.50     -8206.4253   2.0000                                         
     2  0  0.50      -976.1748   2.0000                                         
     2  1  1.50      -839.0571   6.0000                                         
     3  0  0.50      -105.9991   2.0000                                         
     3  1  1.50       -66.4603   6.0000                                         
     3  2  2.50        -4.6458   9.0000                                         
     4  0  0.50        -4.4926   1.0000                                         
     4  1  1.50        -4.0817   0.0000                                         
     4  3  2.50        -1.3606   0.0000                                         
   Description                                                                  
     l       E           TYP  RCUT    TYP  RCUT                                 
     2     -4.6457903     23  2.300                                             
     2     -6.0063729     23  2.300                                             
     0     -4.4925590     23  2.300                                             
     0      5.0102601     23  2.300                                             
     1     -2.7211652     23  2.300                                             
     1     16.5183231     23  2.300                                             
  local pseudopotential read in
  partial core-charges read in
  partial kinetic energy density read in
  atomic valenz-charges read in
  non local Contribution for L=           2  read in
    real space projection operators read in
  non local Contribution for L=           2  read in
    real space projection operators read in
  non local Contribution for L=           0  read in
    real space projection operators read in
  non local Contribution for L=           0  read in
    real space projection operators read in
  non local Contribution for L=           1  read in
    real space projection operators read in
  non local Contribution for L=           1  read in
    real space projection operators read in
    PAW grid and wavefunctions read in
 
   number of l-projection  operators is LMAX  =           6
   number of lm-projection operators is LMMAX =          18
 
 POTCAR:    PAW_PBE O 08Apr2002                   
   VRHFIN =O: s2p4                                                              
   LEXCH  = PE                                                                  
   EATOM  =   432.3788 eV,   31.7789 Ry                                         
                                                                                
   TITEL  = PAW_PBE O 08Apr2002                                                 
   LULTRA =        F    use ultrasoft PP ?                                      
   IUNSCR =        1    unscreen: 0-lin 1-nonlin 2-no                           
   RPACOR =    1.200    partial core radius                                     
   POMASS =   16.000; ZVAL   =    6.000    mass and valenz                      
   RCORE  =    1.520    outmost cutoff radius                                   
   RWIGS  =    1.550; RWIGS  =    0.820    wigner-seitz radius (au A)           
   ENMAX  =  400.000; ENMIN  =  300.000 eV                                      
   ICORE  =        2    local potential                                         
   LCOR   =        T    correct aug charges                                     
   LPAW   =        T    paw PP                                                  
   EAUG   =  605.392                                                            
   DEXC   =    0.000                                                            
   RMAX   =    1.553    core radius for proj-oper                               
   RAUG   =    1.300    factor for augmentation sphere                          
   RDEP   =    1.550    radius for radial grids                                 
   RDEPT  =    1.329    core radius for aug-charge                              
                                                                                
   Atomic configuration                                                         
    4 entries                                                                   
     n  l   j            E        occ.                                          
     1  0  0.50      -514.6923   2.0000                                         
     2  0  0.50       -23.9615   2.0000                                         
     2  1  0.50        -9.0305   4.0000                                         
     3  2  1.50        -9.5241   0.0000                                         
   Description                                                                  
     l       E           TYP  RCUT    TYP  RCUT                                 
     0    -23.9615318     23  1.200                                             
     0     -9.5240782     23  1.200                                             
     1     -9.0304911     23  1.520                                             
     1      8.1634956     23  1.520                                             
     2     -9.5240782      7  1.500                                             
  local pseudopotential read in
  partial core-charges read in
  partial kinetic energy density read in
  kinetic energy density of atom read in
  atomic valenz-charges read in
  non local Contribution for L=           0  read in
    real space projection operators read in
  non local Contribution for L=           0  read in
    real space projection operators read in
  non local Contribution for L=           1  read in
    real space projection operators read in
  non local Contribution for L=           1  read in
    real space projection operators read in
    PAW grid and wavefunctions read in
 
   number of l-projection  operators is LMAX  =           4
   number of lm-projection operators is LMMAX =           8
 
 Optimization of the real space projectors (new method)

 maximal supplied QI-value         = 13.42
 optimisation between [QCUT,QGAM] = [ 11.67, 23.35] = [ 38.16,152.62] Ry 
 Optimized for a Real-space Cutoff    1.63 Angstroem

   l    n(q)    QCUT    max X(q) W(low)/X(q) W(high)/X(q)  e(spline) 
   0     11    11.673    13.882    0.27E-04    0.79E-05    0.11E-06
   0     11    11.673    12.184    0.39E-04    0.13E-04    0.19E-06
   1     11    11.673     4.523    0.73E-05    0.76E-05    0.12E-06
   1     11    11.673     4.424    0.87E-05    0.13E-04    0.19E-06
   2     10    11.673    52.481    0.65E-04    0.36E-04    0.18E-06
   2     10    11.673    38.501    0.61E-04    0.33E-04    0.17E-06
   3     10    11.673    65.631    0.17E-03    0.14E-03    0.37E-06
   3     10    11.673    56.854    0.17E-03    0.14E-03    0.37E-06
 Optimization of the real space projectors (new method)

 maximal supplied QI-value         = 16.25
 optimisation between [QCUT,QGAM] = [ 11.54, 23.24] = [ 37.28,151.24] Ry 
 Optimized for a Real-space Cutoff    1.53 Angstroem

   l    n(q)    QCUT    max X(q) W(low)/X(q) W(high)/X(q)  e(spline) 
   2     10    11.539   110.144    0.12E-03    0.13E-03    0.25E-06
   2     10    11.539   103.200    0.12E-03    0.13E-03    0.25E-06
   0     11    11.539    68.437    0.46E-04    0.21E-04    0.32E-06
   0     11    11.539    33.971    0.37E-04    0.19E-04    0.29E-06
   1     10    11.539    17.065    0.51E-04    0.22E-04    0.13E-06
   1     10    11.539    12.540    0.41E-04    0.18E-04    0.11E-06
 Optimization of the real space projectors (new method)

 maximal supplied QI-value         = 16.25
 optimisation between [QCUT,QGAM] = [ 11.54, 23.24] = [ 37.28,151.24] Ry 
 Optimized for a Real-space Cutoff    1.45 Angstroem

   l    n(q)    QCUT    max X(q) W(low)/X(q) W(high)/X(q)  e(spline) 
   2      9    11.539    60.317    0.19E-03    0.47E-04    0.16E-06
   2      9    11.539    55.921    0.19E-03    0.48E-04    0.16E-06
   0     10    11.539    51.690    0.80E-04    0.50E-04    0.24E-06
   0     10    11.539    30.015    0.73E-04    0.45E-04    0.22E-06
   1     10    11.539    18.849    0.87E-04    0.16E-03    0.71E-07
   1     10    11.539    14.624    0.73E-04    0.13E-03    0.64E-07
 Optimization of the real space projectors (new method)

 maximal supplied QI-value         = 24.76
 optimisation between [QCUT,QGAM] = [ 11.64, 23.27] = [ 37.91,151.63] Ry 
 Optimized for a Real-space Cutoff    1.14 Angstroem

   l    n(q)    QCUT    max X(q) W(low)/X(q) W(high)/X(q)  e(spline) 
   0      8    11.635    20.381    0.10E-03    0.33E-03    0.24E-06
   0      8    11.635    15.268    0.11E-03    0.35E-03    0.26E-06
   1      7    11.635     5.964    0.24E-03    0.31E-03    0.30E-06
   1      7    11.635     5.382    0.22E-03    0.25E-03    0.26E-06
  PAW_PBE La 06Sep2000                  :
 energy of atom  1       EATOM= -865.9763
 kinetic energy error for atom=    0.0009 (will be added to EATOM!!)
  PAW_PBE Mn 06Sep2000                  :
 energy of atom  2       EATOM= -416.7541
 kinetic energy error for atom=    0.0024 (will be added to EATOM!!)
  PAW_PBE Ni 02Aug2007                  :
 energy of atom  3       EATOM=-1077.6739
 kinetic energy error for atom=    0.0030 (will be added to EATOM!!)
  PAW_PBE O 08Apr2002                   :
 energy of atom  4       EATOM= -432.3788
 kinetic energy error for atom=    0.0208 (will be added to EATOM!!)
 
 
 POSCAR: SCEL6_1_3_2_1_0_0/4                     
  positions in direct lattice
  velocities in cartesian coordinates
 exchange correlation table for  LEXCH =        8
   RHO(1)=    0.500       N(1)  =     2000
   RHO(2)=  100.500       N(2)  =     4000
 


--------------------------------------------------------------------------------------------------------


 ion  position               nearest neighbor table
   1  0.000  0.666  0.168-  22 2.72  22 2.72  17 2.74  17 2.74  28 2.74  30 2.74  29 2.75  23 2.75
                            23 2.75  13 2.75  13 2.75  25 2.77  12 3.34  12 3.34   9 3.35   9 3.35
   2  0.000  0.322  0.330-  29 2.66  21 2.71  21 2.71  18 2.71  18 2.71  30 2.76  27 2.77  22 2.81
                            22 2.81  16 2.82  16 2.82  11 3.30  11 3.30  12 3.37  12 3.37  10 3.37
   3  0.000  0.012  0.494-  21 2.63  21 2.63  29 2.65  27 2.66  17 2.76  17 2.76  15 2.76  15 2.76
                            11 3.28  11 3.28  10 3.29  10 3.29   2 3.67
   4  0.000  0.656  0.663-  27 2.65  16 2.68  16 2.68  19 2.71  19 2.71  28 2.72  25 2.76  20 2.77
                            20 2.77  14 2.79  14 2.79  10 3.28  10 3.28   9 3.35   9 3.35   8 3.38
   5  0.000  0.332  0.833-  30 2.73  27 2.73  24 2.73  24 2.73  15 2.73  15 2.73  26 2.74  13 2.75
                            13 2.75  25 2.75  19 2.75  19 2.75  12 3.35  12 3.35   7 3.36   7 3.36
   6  0.000  0.013  0.012-  18 2.63  18 2.63  30 2.64  29 2.65  24 2.75  24 2.75  23 2.76  23 2.76
                            11 3.28  11 3.28  12 3.29  12 3.29   2 3.67
   7  0.500  0.999  0.750-  24 1.89  15 1.89  20 1.94  26 1.94  26 1.94  14 1.94   5 3.36   5 3.36
                             4 3.43   4 3.43
   8  0.500  0.668  0.917-  23 1.89  13 1.89  19 1.90  14 1.93  25 1.94  25 1.94   1 3.37   1 3.37
                             5 3.38   5 3.38   4 3.38   4 3.38
   9  0.500  0.667  0.417-  22 1.89  17 1.89  16 1.90  28 1.94  28 1.94  20 1.94   1 3.35   1 3.35
                             4 3.35   4 3.35
  10  0.500  0.334  0.584-  27 1.94  27 1.94  21 1.95  19 1.97  16 1.99  15 2.00   4 3.28   4 3.28
                             3 3.29   3 3.29   5 3.36   5 3.36   2 3.37   2 3.37
  11  0.500  0.997  0.249-  29 1.94  29 1.94  21 1.96  18 1.96  17 1.97  23 1.97   6 3.28   6 3.28
                             3 3.28   3 3.28   2 3.30   2 3.30   1 3.35   1 3.35
  12  0.500  0.335  0.083-  30 1.94  30 1.94  18 1.95  13 1.97  22 2.00  24 2.01   6 3.29   6 3.29
                             1 3.34   1 3.34   5 3.35   5 3.35   2 3.37   2 3.37
  13  0.500  0.504  0.997-   8 1.89  12 1.97   5 2.75   5 2.75   1 2.75   1 2.75
  14  0.500  0.832  0.832-   8 1.93   7 1.94   4 2.79   4 2.79
  15  0.500  0.163  0.670-   7 1.89  10 2.00   5 2.73   5 2.73   3 2.76   3 2.76
  16  0.500  0.507  0.500-   9 1.90  10 1.99   4 2.68   4 2.68   2 2.82   2 2.82
  17  0.500  0.829  0.335-   9 1.89  11 1.97   1 2.74   1 2.74   3 2.76   3 2.76
  18  0.500  0.165  0.164-  12 1.95  11 1.96   6 2.63   6 2.63   2 2.71   2 2.71
  19  0.500  0.504  0.754-   8 1.90  10 1.97   4 2.71   4 2.71   5 2.75   5 2.75
  20  0.500  0.832  0.584-   7 1.94   9 1.94   4 2.77   4 2.77
  21  0.500  0.165  0.418-  10 1.95  11 1.96   3 2.63   3 2.63   2 2.71   2 2.71
  22  0.500  0.506  0.254-   9 1.89  12 2.00   1 2.72   1 2.72   2 2.81   2 2.81
  23  0.500  0.829  0.080-   8 1.89  11 1.97   1 2.75   1 2.75   6 2.76   6 2.76
  24  0.500  0.162  0.911-   7 1.89  12 2.01   5 2.73   5 2.73   6 2.75   6 2.75
  25  0.000  0.666  0.916-   8 1.94   8 1.94   5 2.75   4 2.76   1 2.77
  26  0.000  0.999  0.750-   7 1.94   7 1.94   5 2.74
  27  0.000  0.334  0.585-  10 1.94  10 1.94   4 2.65   3 2.66   5 2.73   2 2.77
  28  0.000  0.668  0.418-   9 1.94   9 1.94   4 2.72   1 2.74
  29  0.000  0.999  0.250-  11 1.94  11 1.94   6 2.65   3 2.65   2 2.66   1 2.75
  30  0.000  0.333  0.082-  12 1.94  12 1.94   6 2.64   5 2.73   1 2.74   2 2.76
 
  LATTYP: Found a simple monoclinic cell.
 ALAT       =    11.6558944624
 B/A-ratio  =     0.3329099773
 C/A-ratio  =     1.4903157915
 COS(beta)  =    -0.8945522871
  
  Lattice vectors:
  
 A1 = (   0.0000000000, -11.6558943699,   0.0014688250)
 A2 = (   3.8803635614,   0.0000000000,   0.0000000000)
 A3 = (   0.0000000000,  15.5402134860,   7.7622252321)


Analysis of symmetry for initial positions (statically):
=====================================================================
 Subroutine PRICEL returns:
 Original cell was already a primitive cell.
 

 Routine SETGRP: Setting up the symmetry group for a 
 simple monoclinic supercell.


 Subroutine GETGRP returns: Found  2 space group operations
 (whereof  2 operations were pure point group operations)
 out of a pool of  4 trial point group operations.


The static configuration has the point symmetry C_1h.


Analysis of symmetry for dynamics (positions and initial velocities):
=====================================================================
 Subroutine PRICEL returns:
 Original cell was already a primitive cell.
 

 Routine SETGRP: Setting up the symmetry group for a 
 simple monoclinic supercell.


 Subroutine GETGRP returns: Found  2 space group operations
 (whereof  2 operations were pure point group operations)
 out of a pool of  4 trial point group operations.


The dynamic configuration has the point symmetry C_1h.


Analysis of structural, dynamic, and magnetic symmetry:
=====================================================================
 Subroutine PRICEL returns:
 Original cell was already a primitive cell.
 

 Routine SETGRP: Setting up the symmetry group for a 
 simple monoclinic supercell.


 Subroutine GETGRP returns: Found  2 space group operations
 (whereof  2 operations were pure point group operations)
 out of a pool of  4 trial point group operations.


The magnetic configuration has the point symmetry C_1h.


 Subroutine INISYM returns: Found  2 space group operations
 (whereof  2 operations are pure point group operations),
 and found     1 'primitive' translations

 
 
 KPOINTS: Automatic mesh                          

Automatic generation of k-mesh.
 generate k-points for:    5    2    2
Space group operators:
 irot       det(A)        alpha          n_x          n_y          n_z        tau_x        tau_y        tau_z
    1     1.000000     0.000000     1.000000     0.000000     0.000000     0.000000     0.000000     0.000000
    2    -1.000000   180.000000     1.000000     0.000000     0.000000     0.000000     0.000000     0.000000
 
 Subroutine IBZKPT returns following result:
 ===========================================
 
 Found     12 irreducible k-points:
 
 Following reciprocal coordinates:
            Coordinates               Weight
  0.000000  0.000000  0.000000      1.000000
  0.200000  0.000000  0.000000      2.000000
  0.400000  0.000000  0.000000      2.000000
  0.000000  0.500000  0.000000      1.000000
  0.200000  0.500000  0.000000      2.000000
  0.400000  0.500000  0.000000      2.000000
  0.000000 -0.000000  0.500000      1.000000
  0.200000 -0.000000  0.500000      2.000000
  0.400000 -0.000000  0.500000      2.000000
  0.000000  0.500000  0.500000      1.000000
  0.200000  0.500000  0.500000      2.000000
  0.400000  0.500000  0.500000      2.000000
 
 Following cartesian coordinates:
            Coordinates               Weight
  0.000000  0.000000  0.000000      1.000000
 -0.051542  0.000000  0.000000      2.000000
 -0.103083  0.000000  0.000000      2.000000
  0.000000  0.042902  0.042938      1.000000
 -0.051542  0.042902  0.042938      2.000000
 -0.103083  0.042902  0.042938      2.000000
  0.000000  0.042894 -0.021461      1.000000
 -0.051542  0.042894 -0.021461      2.000000
 -0.103083  0.042894 -0.021461      2.000000
  0.000000  0.085796  0.021477      1.000000
 -0.051542  0.085796  0.021477      2.000000
 -0.103083  0.085796  0.021477      2.000000
 
 TETIRR: Found     60 inequivalent tetrahedra from      120


--------------------------------------------------------------------------------------------------------




 Dimension of arrays:
   k-points           NKPTS =     12   k-points in BZ     NKDIM =     12   number of bands    NBANDS=    146
   number of dos      NEDOS =    301   number of ions     NIONS =     30
   non local maximal  LDIM  =      8   non local SUM 2l+1 LMDIM =     32
   total plane-waves  NPLWV = 176400
   max r-space proj   IRMAX =   9115   max aug-charges    IRDMAX=  26445
   dimension x,y,z NGX =    30 NGY =   70 NGZ =   84
   dimension x,y,z NGXF=    60 NGYF=  140 NGZF=  168
   support grid    NGXF=    60 NGYF=  140 NGZF=  168
   ions per type =               6   3   3  18
   NGX,Y,Z   is equivalent  to a cutoff of  12.85, 13.41, 12.71 a.u.
   NGXF,Y,Z  is equivalent  to a cutoff of  25.71, 26.81, 25.42 a.u.

 SYSTEM =  final                                   
 POSCAR =  SCEL6_1_3_2_1_0_0/4                     

 Startparameter for this run:
   NWRITE =      2    write-flag & timer
   PREC   = accura    normal or accurate (medium, high low for compatibility)
   ISTART =      0    job   : 0-new  1-cont  2-samecut
   ICHARG =      1    charge: 1-file 2-atom 10-const
   ISPIN  =      2    spin polarized calculation?
   LNONCOLLINEAR =      F non collinear calculations
   LSORBIT =      F    spin-orbit coupling
   INIWAV =      1    electr: 0-lowe 1-rand  2-diag
   LASPH  =      F    aspherical Exc in radial PAW
   METAGGA=      F    non-selfconsistent MetaGGA calc.

 Electronic Relaxation 1
   ENCUT  =  520.0 eV  38.22 Ry    6.18 a.u.   7.21 16.14 20.43*2*pi/ulx,y,z
   ENINI  =  520.0     initial cutoff
   ENAUG  =  605.4 eV  augmentation charge cutoff
   NELM   =    100;   NELMIN=  2; NELMDL= -5     # of ELM steps 
   EDIFF  = 0.1E-02   stopping-criterion for ELM
   LREAL  =      T    real-space projection
   NLSPLINE    = F    spline interpolate recip. space projectors
   LCOMPAT=      F    compatible to vasp.4.4
   GGA_COMPAT  = T    GGA compatible to vasp.4.4-vasp.4.6
   LMAXPAW     = -100 max onsite density
   LMAXMIX     =    6 max onsite mixed and CHGCAR
   VOSKOWN=      0    Vosko Wilk Nusair interpolation
   ROPT   =   -0.00025  -0.00025  -0.00025  -0.00025
 Ionic relaxation
   EDIFFG = 0.1E-01   stopping-criterion for IOM
   NSW    =      0    number of steps for IOM
   NBLOCK =      1;   KBLOCK =      1    inner block; outer block 
   IBRION =     -1    ionic relax: 0-MD 1-quasi-New 2-CG
   NFREE  =      0    steps in history (QN), initial steepest desc. (CG)
   ISIF   =      2    stress and relaxation
   IWAVPR =     10    prediction:  0-non 1-charg 2-wave 3-comb
   ISYM   =      2    0-nonsym 1-usesym 2-fastsym
   LCORR  =      T    Harris-Foulkes like correction to forces

   POTIM  = 0.5000    time-step for ionic-motion
   TEIN   =    0.0    initial temperature
   TEBEG  =    0.0;   TEEND  =   0.0 temperature during run
   SMASS  =  -3.00    Nose mass-parameter (am)
   estimated Nose-frequenzy (Omega)   =  0.10E-29 period in steps =****** mass=  -0.344E-27a.u.
   SCALEE = 1.0000    scale energy and forces
   NPACO  =    256;   APACO  = 16.0  distance and # of slots for P.C.
   PSTRESS=    0.0 pullay stress

  Mass of Ions in am
   POMASS = 138.90 54.94 58.69 16.00
  Ionic Valenz
   ZVAL   =  11.00  7.00 10.00  6.00
  Atomic Wigner-Seitz radii
   RWIGS  =  -1.00 -1.00 -1.00 -1.00
  virtual crystal weights 
   VCA    =   1.00  1.00  1.00  1.00
   NELECT =     225.0000    total number of electrons
   NUPDOWN=      -1.0000    fix difference up-down

 DOS related values:
   EMIN   =  10.00;   EMAX   =-10.00  energy-range for DOS
   EFERMI =   0.00
   ISMEAR =    -5;   SIGMA  =   0.05  broadening in eV -4-tet -1-fermi 0-gaus

 Electronic relaxation 2 (details)
   IALGO  =     68    algorithm
   LDIAG  =      T    sub-space diagonalisation (order eigenvalues)
   LSUBROT=      F    optimize rotation matrix (better conditioning)
   TURBO    =      0    0=normal 1=particle mesh
   IRESTART =      0    0=no restart 2=restart with 2 vectors
   NREBOOT  =      0    no. of reboots
   NMIN     =      0    reboot dimension
   EREF     =   0.00    reference energy to select bands
   IMIX   =      4    mixing-type and parameters
     AMIX     =   0.40;   BMIX     =  1.00
     AMIX_MAG =   1.60;   BMIX_MAG =  1.00
     AMIN     =   0.10
     WC   =   100.;   INIMIX=   1;  MIXPRE=   1;  MAXMIX= -45

 Intra band minimization:
   WEIMIN = 0.0000     energy-eigenvalue tresh-hold
   EBREAK =  0.17E-05  absolut break condition
   DEPER  =   0.30     relativ break condition  

   TIME   =   0.40     timestep for ELM

  volume/ion in A,a.u.               =      11.71        78.99
  Fermi-wavevector in a.u.,A,eV,Ry     =   1.411338  2.667042 27.101108  1.991875
  Thomas-Fermi vector in A             =   2.533200
 
 Write flags
   LWAVE        =      F    write WAVECAR
   LDOWNSAMPLE  =      F    k-point downsampling of WAVECAR
   LCHARG       =      T    write CHGCAR
   LVTOT        =      F    write LOCPOT, total local potential
   LVHAR        =      F    write LOCPOT, Hartree potential only
   LELF         =      F    write electronic localiz. function (ELF)
   LORBIT       =     11    0 simple, 1 ext, 2 COOP (PROOUT), +10 PAW based schemes


 Dipole corrections
   LMONO  =      F    monopole corrections only (constant potential shift)
   LDIPOL =      F    correct potential (dipole corrections)
   IDIPOL =      0    1-x, 2-y, 3-z, 4-all directions 
   EPSILON=  1.0000000 bulk dielectric constant

 LDA+U is selected, type is set to LDAUTYPE =  2
   angular momentum for each species LDAUL =     0    2    2    0
   U (eV)           for each species LDAUU =   0.0  3.9  6.2  0.0
   J (eV)           for each species LDAUJ =   0.0  0.0  0.0  0.0
 Exchange correlation treatment:
   GGA     =    --    GGA type
   LEXCH   =     8    internal setting for exchange type
   VOSKOWN=      0    Vosko Wilk Nusair interpolation
   LHFCALC =     F    Hartree Fock is set to
   LHFONE  =     F    Hartree Fock one center treatment
   AEXX    =    0.0000 exact exchange contribution

 Linear response parameters
   LEPSILON=     F    determine dielectric tensor
   LRPA    =     F    only Hartree local field effects (RPA)
   LNABLA  =     F    use nabla operator in PAW spheres
   LVEL    =     F    velocity operator in full k-point grid
   LINTERFAST=   F  fast interpolation
   KINTER  =     0    interpolate to denser k-point grid
   CSHIFT  =0.1000    complex shift for real part using Kramers Kronig
   OMEGAMAX=  -1.0    maximum frequency
   DEG_THRESHOLD= 0.2000000E-02 threshold for treating states as degnerate
   RTIME   =   -0.100 relaxation time in fs
  (WPLASMAI=    0.000 imaginary part of plasma frequency in eV, 0.658/RTIME)
   DFIELD  = 0.0000000 0.0000000 0.0000000 field for delta impulse in time
 
 Orbital magnetization related:
   ORBITALMAG=     F  switch on orbital magnetization
   LCHIMAG   =     F  perturbation theory with respect to B field
   DQ        =  0.001000  dq finite difference perturbation B field
   LLRAUG    =     F  two centre corrections for induced B field



--------------------------------------------------------------------------------------------------------


 Static calculation
 charge density and potential will be updated during run
 spin polarized calculation
 RMM-DIIS sequential band-by-band and
  variant of blocked Davidson during initial phase
 perform sub-space diagonalisation
    before iterative eigenvector-optimisation
 modified Broyden-mixing scheme, WC =      100.0
 initial mixing is a Kerker type mixing with AMIX =  0.4000 and BMIX =      1.0000
 Hartree-type preconditioning will be used
 using additional bands           33
 real space projection scheme for non local part
 use partial core corrections
 calculate Harris-corrections to forces 
   (improved forces if not selfconsistent)
 use gradient corrections 
 use of overlap-Matrix (Vanderbilt PP)
 Fermi weights with tetrahedron method with Bloechl corrections


--------------------------------------------------------------------------------------------------------


  energy-cutoff  :      520.00
  volume of cell :      351.17
      direct lattice vectors                 reciprocal lattice vectors
    -3.880363561  0.000000000  0.000000000    -0.257707811  0.000000000  0.000000000
     0.000000000  3.884319116  7.763694057     0.000000000  0.085804324  0.085875180
     0.000000000  7.771575254 -7.765162882     0.000000000  0.085788094 -0.042921363

  length of vectors
     3.880363561  8.681179667 10.986133829     0.257707811  0.121395752  0.095926224


 
 k-points in units of 2pi/SCALE and weight: Automatic mesh                          
   0.00000000  0.00000000  0.00000000       0.050
  -0.05154156  0.00000000  0.00000000       0.100
  -0.10308312  0.00000000  0.00000000       0.100
   0.00000000  0.04290216  0.04293759       0.050
  -0.05154156  0.04290216  0.04293759       0.100
  -0.10308312  0.04290216  0.04293759       0.100
   0.00000000  0.04289405 -0.02146068       0.050
  -0.05154156  0.04289405 -0.02146068       0.100
  -0.10308312  0.04289405 -0.02146068       0.100
   0.00000000  0.08579621  0.02147691       0.050
  -0.05154156  0.08579621  0.02147691       0.100
  -0.10308312  0.08579621  0.02147691       0.100
 
 k-points in reciprocal lattice and weights: Automatic mesh                          
   0.00000000  0.00000000  0.00000000       0.050
   0.20000000  0.00000000  0.00000000       0.100
   0.40000000  0.00000000  0.00000000       0.100
   0.00000000  0.50000000  0.00000000       0.050
   0.20000000  0.50000000  0.00000000       0.100
   0.40000000  0.50000000  0.00000000       0.100
   0.00000000 -0.00000000  0.50000000       0.050
   0.20000000 -0.00000000  0.50000000       0.100
   0.40000000 -0.00000000  0.50000000       0.100
   0.00000000  0.50000000  0.50000000       0.050
   0.20000000  0.50000000  0.50000000       0.100
   0.40000000  0.50000000  0.50000000       0.100
 
 position of ions in fractional coordinates (direct lattice) 
   0.00000000  0.66576348  0.16793161
   0.00000000  0.32165364  0.33025738
   0.00000000  0.01244388  0.49392597
   0.00000000  0.65611599  0.66254182
   0.00000000  0.33198335  0.83327770
   0.00000000  0.01306502  0.01221756
   0.50000000  0.99937287  0.74981922
   0.50000000  0.66758751  0.91703080
   0.50000000  0.66696956  0.41659413
   0.50000000  0.33440123  0.58443220
   0.50000000  0.99719843  0.24917947
   0.50000000  0.33537528  0.08295231
   0.50000000  0.50390380  0.99741203
   0.50000000  0.83150380  0.83197967
   0.50000000  0.16255493  0.67005275
   0.50000000  0.50672412  0.50039327
   0.50000000  0.82907233  0.33469259
   0.50000000  0.16531571  0.16448481
   0.50000000  0.50414601  0.75365666
   0.50000000  0.83219056  0.58421395
   0.50000000  0.16514569  0.41776544
   0.50000000  0.50634164  0.25432536
   0.50000000  0.82878178  0.07950946
   0.50000000  0.16215244  0.91109213
   0.00000000  0.66566653  0.91576917
   0.00000000  0.99938334  0.74992112
   0.00000000  0.33448839  0.58532426
   0.00000000  0.66827253  0.41772128
   0.00000000  0.99927761  0.24962167
   0.00000000  0.33314857  0.08190420
 
 position of ions in cartesian coordinates  (Angst):
   0.00000000  3.89113098  3.86476762
   0.00000000  3.81602547 -0.06728192
   0.00000000  3.88691879 -3.73880512
   0.00000000  7.69755752 -0.05086130
   0.00000000  7.76540964 -3.89311991
   0.00000000  0.14569842  0.00656143
  -1.94018178  9.70915962  1.93635680
  -1.94018178  9.71989682 -1.93794840
  -1.94018178  5.82831526  1.94322627
  -1.94018178  5.84087989 -1.94202233
  -1.94018178  5.80995390  5.80702441
  -1.94018178  1.94737477  1.95961289
  -1.94018178  9.70878578 -3.83291193
  -1.94018178  9.69561870 -0.00491653
  -1.94018178  5.83878059 -3.94104201
  -1.94018178  5.85712211  0.04841580
  -1.94018178  5.82147011  3.83772145
  -1.94018178  1.92044502  0.00620924
  -1.94018178  7.81536345 -1.93823140
  -1.94018178  7.77275639  1.92435646
  -1.94018178  3.88817414 -1.96187613
  -1.94018178  3.94330122  1.95620376
  -1.94018178  3.83716667  5.81700421
  -1.94018178  7.71047286 -5.81587685
   0.00000000  9.70263021 -1.94306547
   0.00000000  9.70999226  1.93564685
   0.00000000  5.84815117 -1.94827271
   0.00000000  5.84213615  1.94458965
   0.00000000  5.82146674  5.81973269
   0.00000000  1.93058002  1.95046416
 


--------------------------------------------------------------------------------------------------------


 k-point  1 :   0.0000 0.0000 0.0000  plane waves:    9415
 k-point  2 :   0.2000 0.0000 0.0000  plane waves:    9465
 k-point  3 :   0.4000 0.0000 0.0000  plane waves:    9472
 k-point  4 :   0.0000 0.5000 0.0000  plane waves:    9426
 k-point  5 :   0.2000 0.5000 0.0000  plane waves:    9454
 k-point  6 :   0.4000 0.5000 0.0000  plane waves:    9494
 k-point  7 :   0.0000-0.0000 0.5000  plane waves:    9456
 k-point  8 :   0.2000-0.0000 0.5000  plane waves:    9428
 k-point  9 :   0.4000-0.0000 0.5000  plane waves:    9468
 k-point 10 :   0.0000 0.5000 0.5000  plane waves:    9484
 k-point 11 :   0.2000 0.5000 0.5000  plane waves:    9452
 k-point 12 :   0.4000 0.5000 0.5000  plane waves:    9452

 maximum and minimum number of plane-waves per node :       966      917

 maximum number of plane-waves:      9494
 maximum index in each direction: 
   IXMAX=    7   IYMAX=   16   IZMAX=   20
   IXMIN=   -7   IYMIN=  -16   IZMIN=  -20


 real space projection operators:
  total allocation   :      22322.86 KBytes
  max/ min on nodes  :       2328.06       2184.92


 parallel 3D FFT for wavefunctions:
    minimum data exchange during FFTs selected (reduces bandwidth)
 parallel 3D FFT for charge:
    minimum data exchange during FFTs selected (reduces bandwidth)


 total amount of memory used by VASP MPI-rank0    77601. kBytes
=======================================================================

   base      :      30000. kBytes
   nonlr-proj:       7523. kBytes
   fftplans  :       2934. kBytes
   grid      :       8258. kBytes
   one-center:        294. kBytes
   wavefun   :      28592. kBytes
 
     INWAV:  cpu time    0.0000: real time    0.0001
 Broyden mixing: mesh for mixing (old mesh)
   NGX = 15   NGY = 33   NGZ = 41
  (NGX  = 60   NGY  =140   NGZ  =168)
  gives a total of  20295 points

 initial charge density was supplied:
 charge density of overlapping atoms calculated
 number of electron     225.0000000 magnetization      21.0000000
 keeping initial charge density in first step


--------------------------------------------------------------------------------------------------------


 Maximum index for non-local projection operator          913
 Maximum index for augmentation-charges         1080 (set IRDMAX)


--------------------------------------------------------------------------------------------------------


 First call to EWALD:  gamma=   0.251
 Maximum number of real-space cells 5x 2x 2
 Maximum number of reciprocal cells 2x 3x 4

    FEWALD:  cpu time    0.0024: real time    0.0028


--------------------------------------- Iteration      1(   1)  ---------------------------------------


    POTLOK:  cpu time    0.1043: real time    0.1071
    SETDIJ:  cpu time    0.0258: real time    0.0259
atom =   1  type =  1  l = 0
 
 onsite density matrix
 
spin component  1
 
  1.0989
 
spin component  2
 
  1.0989
 
 occupancies and eigenvectors
 
  o =  1.0989  v =  1.0000  0.0000      0.0000  0.0000
  o =  1.0989  v =  0.0000  1.0000      0.0000  0.0000
atom =   2  type =  1  l = 0
 
 onsite density matrix
 
spin component  1
 
  1.0989
 
spin component  2
 
  1.0989
 
 occupancies and eigenvectors
 
  o =  1.0989  v =  1.0000  0.0000      0.0000  0.0000
  o =  1.0989  v =  0.0000  1.0000      0.0000  0.0000
atom =   3  type =  1  l = 0
 
 onsite density matrix
 
spin component  1
 
  1.0989
 
spin component  2
 
  1.0989
 
 occupancies and eigenvectors
 
  o =  1.0989  v =  1.0000  0.0000      0.0000  0.0000
  o =  1.0989  v =  0.0000  1.0000      0.0000  0.0000
atom =   4  type =  1  l = 0
 
 onsite density matrix
 
spin component  1
 
  1.0989
 
spin component  2
 
  1.0989
 
 occupancies and eigenvectors
 
  o =  1.0989  v =  1.0000  0.0000      0.0000  0.0000
  o =  1.0989  v =  0.0000  1.0000      0.0000  0.0000
atom =   5  type =  1  l = 0
 
 onsite density matrix
 
spin component  1
 
  1.0989
 
spin component  2
 
  1.0989
 
 occupancies and eigenvectors
 
  o =  1.0989  v =  1.0000  0.0000      0.0000  0.0000
  o =  1.0989  v =  0.0000  1.0000      0.0000  0.0000
atom =   6  type =  1  l = 0
 
 onsite density matrix
 
spin component  1
 
  1.0989
 
spin component  2
 
  1.0989
 
 occupancies and eigenvectors
 
  o =  1.0989  v =  1.0000  0.0000      0.0000  0.0000
  o =  1.0989  v =  0.0000  1.0000      0.0000  0.0000
atom =   7  type =  2  l = 2
 
 onsite density matrix
 
spin component  1
 
  0.8272  0.0000  0.0000  0.0000  0.0000
  0.0000  0.8272  0.0000  0.0000  0.0000
  0.0000  0.0000  0.8272  0.0000  0.0000
  0.0000  0.0000  0.0000  0.8272  0.0000
  0.0000  0.0000  0.0000  0.0000  0.8272
 
spin component  2
 
  0.2256  0.0000  0.0000  0.0000  0.0000
  0.0000  0.2256  0.0000  0.0000  0.0000
  0.0000  0.0000  0.2256  0.0000  0.0000
  0.0000  0.0000  0.0000  0.2256  0.0000
  0.0000  0.0000  0.0000  0.0000  0.2256
 
 occupancies and eigenvectors
 
  o =  0.2256  v =  0.0000  0.0000  0.0000  0.0000  0.0000  0.0000  0.0000  1.0000  0.0000  0.0000      0.0000  0.0000  0.0000  0.0000  0.0000  0.0000  0.0000  0.0000  0.0000  0.0000
  o =  0.2256  v =  0.0000  0.0000  0.0000  0.0000  0.0000  1.0000  0.0000  0.0000  0.0000  0.0000      0.0000  0.0000  0.0000  0.0000  0.0000  0.0000  0.0000  0.0000  0.0000  0.0000
  o =  0.2256  v =  0.0000  0.0000  0.0000  0.0000  0.0000  0.0000  1.0000  0.0000  0.0000  0.0000      0.0000  0.0000  0.0000  0.0000  0.0000  0.0000  0.0000  0.0000  0.0000  0.0000
  o =  0.2256  v =  0.0000  0.0000  0.0000  0.0000  0.0000  0.0000  0.0000  0.0000  1.0000  0.0000      0.0000  0.0000  0.0000  0.0000  0.0000  0.0000  0.0000  0.0000  0.0000  0.0000
  o =  0.2256  v =  0.0000  0.0000  0.0000  0.0000  0.0000  0.0000  0.0000  0.0000  0.0000  1.0000      0.0000  0.0000  0.0000  0.0000  0.0000  0.0000  0.0000  0.0000  0.0000  0.0000
  o =  0.8272  v =  0.0000  1.0000  0.0000  0.0000  0.0000  0.0000  0.0000  0.0000  0.0000  0.0000      0.0000  0.0000  0.0000  0.0000  0.0000  0.0000  0.0000  0.0000  0.0000  0.0000
  o =  0.8272  v =  0.0000  0.0000  1.0000  0.0000  0.0000  0.0000  0.0000  0.0000  0.0000  0.0000      0.0000  0.0000  0.0000  0.0000  0.0000  0.0000  0.0000  0.0000  0.0000  0.0000
  o =  0.8272  v =  1.0000  0.0000  0.0000  0.0000  0.0000  0.0000  0.0000  0.0000  0.0000  0.0000      0.0000  0.0000  0.0000  0.0000  0.0000  0.0000  0.0000  0.0000  0.0000  0.0000
  o =  0.8272  v =  0.0000  0.0000  0.0000  1.0000  0.0000  0.0000  0.0000  0.0000  0.0000  0.0000      0.0000  0.0000  0.0000  0.0000  0.0000  0.0000  0.0000  0.0000  0.0000  0.0000
  o =  0.8272  v =  0.0000  0.0000  0.0000  0.0000  1.0000  0.0000  0.0000  0.0000  0.0000  0.0000      0.0000  0.0000  0.0000  0.0000  0.0000  0.0000  0.0000  0.0000  0.0000  0.0000
atom =   8  type =  2  l = 2
 
 onsite density matrix
 
spin component  1
 
  0.8272  0.0000  0.0000  0.0000  0.0000
  0.0000  0.8272  0.0000  0.0000  0.0000
  0.0000  0.0000  0.8272  0.0000  0.0000
  0.0000  0.0000  0.0000  0.8272  0.0000
  0.0000  0.0000  0.0000  0.0000  0.8272
 
spin component  2
 
  0.2256  0.0000  0.0000  0.0000  0.0000
  0.0000  0.2256  0.0000  0.0000  0.0000
  0.0000  0.0000  0.2256  0.0000  0.0000
  0.0000  0.0000  0.0000  0.2256  0.0000
  0.0000  0.0000  0.0000  0.0000  0.2256
 
 occupancies and eigenvectors
 
  o =  0.2256  v =  0.0000  0.0000  0.0000  0.0000  0.0000  0.0000  0.0000  1.0000  0.0000  0.0000      0.0000  0.0000  0.0000  0.0000  0.0000  0.0000  0.0000  0.0000  0.0000  0.0000
  o =  0.2256  v =  0.0000  0.0000  0.0000  0.0000  0.0000  1.0000  0.0000  0.0000  0.0000  0.0000      0.0000  0.0000  0.0000  0.0000  0.0000  0.0000  0.0000  0.0000  0.0000  0.0000
  o =  0.2256  v =  0.0000  0.0000  0.0000  0.0000  0.0000  0.0000  1.0000  0.0000  0.0000  0.0000      0.0000  0.0000  0.0000  0.0000  0.0000  0.0000  0.0000  0.0000  0.0000  0.0000
  o =  0.2256  v =  0.0000  0.0000  0.0000  0.0000  0.0000  0.0000  0.0000  0.0000  1.0000  0.0000      0.0000  0.0000  0.0000  0.0000  0.0000  0.0000  0.0000  0.0000  0.0000  0.0000
  o =  0.2256  v =  0.0000  0.0000  0.0000  0.0000  0.0000  0.0000  0.0000  0.0000  0.0000  1.0000      0.0000  0.0000  0.0000  0.0000  0.0000  0.0000  0.0000  0.0000  0.0000  0.0000
  o =  0.8272  v =  0.0000  1.0000  0.0000  0.0000  0.0000  0.0000  0.0000  0.0000  0.0000  0.0000      0.0000  0.0000  0.0000  0.0000  0.0000  0.0000  0.0000  0.0000  0.0000  0.0000
  o =  0.8272  v =  0.0000  0.0000  1.0000  0.0000  0.0000  0.0000  0.0000  0.0000  0.0000  0.0000      0.0000  0.0000  0.0000  0.0000  0.0000  0.0000  0.0000  0.0000  0.0000  0.0000
  o =  0.8272  v =  1.0000  0.0000  0.0000  0.0000  0.0000  0.0000  0.0000  0.0000  0.0000  0.0000      0.0000  0.0000  0.0000  0.0000  0.0000  0.0000  0.0000  0.0000  0.0000  0.0000
  o =  0.8272  v =  0.0000  0.0000  0.0000  1.0000  0.0000  0.0000  0.0000  0.0000  0.0000  0.0000      0.0000  0.0000  0.0000  0.0000  0.0000  0.0000  0.0000  0.0000  0.0000  0.0000
  o =  0.8272  v =  0.0000  0.0000  0.0000  0.0000  1.0000  0.0000  0.0000  0.0000  0.0000  0.0000      0.0000  0.0000  0.0000  0.0000  0.0000  0.0000  0.0000  0.0000  0.0000  0.0000
atom =   9  type =  2  l = 2
 
 onsite density matrix
 
spin component  1
 
  0.8272  0.0000  0.0000  0.0000  0.0000
  0.0000  0.8272  0.0000  0.0000  0.0000
  0.0000  0.0000  0.8272  0.0000  0.0000
  0.0000  0.0000  0.0000  0.8272  0.0000
  0.0000  0.0000  0.0000  0.0000  0.8272
 
spin component  2
 
  0.2256  0.0000  0.0000  0.0000  0.0000
  0.0000  0.2256  0.0000  0.0000  0.0000
  0.0000  0.0000  0.2256  0.0000  0.0000
  0.0000  0.0000  0.0000  0.2256  0.0000
  0.0000  0.0000  0.0000  0.0000  0.2256
 
 occupancies and eigenvectors
 
  o =  0.2256  v =  0.0000  0.0000  0.0000  0.0000  0.0000  0.0000  0.0000  1.0000  0.0000  0.0000      0.0000  0.0000  0.0000  0.0000  0.0000  0.0000  0.0000  0.0000  0.0000  0.0000
  o =  0.2256  v =  0.0000  0.0000  0.0000  0.0000  0.0000  1.0000  0.0000  0.0000  0.0000  0.0000      0.0000  0.0000  0.0000  0.0000  0.0000  0.0000  0.0000  0.0000  0.0000  0.0000
  o =  0.2256  v =  0.0000  0.0000  0.0000  0.0000  0.0000  0.0000  1.0000  0.0000  0.0000  0.0000      0.0000  0.0000  0.0000  0.0000  0.0000  0.0000  0.0000  0.0000  0.0000  0.0000
  o =  0.2256  v =  0.0000  0.0000  0.0000  0.0000  0.0000  0.0000  0.0000  0.0000  1.0000  0.0000      0.0000  0.0000  0.0000  0.0000  0.0000  0.0000  0.0000  0.0000  0.0000  0.0000
  o =  0.2256  v =  0.0000  0.0000  0.0000  0.0000  0.0000  0.0000  0.0000  0.0000  0.0000  1.0000      0.0000  0.0000  0.0000  0.0000  0.0000  0.0000  0.0000  0.0000  0.0000  0.0000
  o =  0.8272  v =  0.0000  1.0000  0.0000  0.0000  0.0000  0.0000  0.0000  0.0000  0.0000  0.0000      0.0000  0.0000  0.0000  0.0000  0.0000  0.0000  0.0000  0.0000  0.0000  0.0000
  o =  0.8272  v =  0.0000  0.0000  1.0000  0.0000  0.0000  0.0000  0.0000  0.0000  0.0000  0.0000      0.0000  0.0000  0.0000  0.0000  0.0000  0.0000  0.0000  0.0000  0.0000  0.0000
  o =  0.8272  v =  1.0000  0.0000  0.0000  0.0000  0.0000  0.0000  0.0000  0.0000  0.0000  0.0000      0.0000  0.0000  0.0000  0.0000  0.0000  0.0000  0.0000  0.0000  0.0000  0.0000
  o =  0.8272  v =  0.0000  0.0000  0.0000  1.0000  0.0000  0.0000  0.0000  0.0000  0.0000  0.0000      0.0000  0.0000  0.0000  0.0000  0.0000  0.0000  0.0000  0.0000  0.0000  0.0000
  o =  0.8272  v =  0.0000  0.0000  0.0000  0.0000  1.0000  0.0000  0.0000  0.0000  0.0000  0.0000      0.0000  0.0000  0.0000  0.0000  0.0000  0.0000  0.0000  0.0000  0.0000  0.0000
atom =  10  type =  3  l = 2
 
 onsite density matrix
 
spin component  1
 
  1.1008  0.0000  0.0000  0.0000  0.0000
  0.0000  1.1008  0.0000  0.0000  0.0000
  0.0000  0.0000  1.1008  0.0000  0.0000
  0.0000  0.0000  0.0000  1.1008  0.0000
  0.0000  0.0000  0.0000  0.0000  1.1008
 
spin component  2
 
  0.5927  0.0000  0.0000  0.0000  0.0000
  0.0000  0.5927  0.0000  0.0000  0.0000
  0.0000  0.0000  0.5927  0.0000  0.0000
  0.0000  0.0000  0.0000  0.5927  0.0000
  0.0000  0.0000  0.0000  0.0000  0.5927
 
 occupancies and eigenvectors
 
  o =  0.5927  v =  0.0000  0.0000  0.0000  0.0000  0.0000  1.0000  0.0000  0.0000  0.0000  0.0000      0.0000  0.0000  0.0000  0.0000  0.0000  0.0000  0.0000  0.0000  0.0000  0.0000
  o =  0.5927  v =  0.0000  0.0000  0.0000  0.0000  0.0000  0.0000  1.0000  0.0000  0.0000  0.0000      0.0000  0.0000  0.0000  0.0000  0.0000  0.0000  0.0000  0.0000  0.0000  0.0000
  o =  0.5927  v =  0.0000  0.0000  0.0000  0.0000  0.0000  0.0000  0.0000  1.0000  0.0000  0.0000      0.0000  0.0000  0.0000  0.0000  0.0000  0.0000  0.0000  0.0000  0.0000  0.0000
  o =  0.5927  v =  0.0000  0.0000  0.0000  0.0000  0.0000  0.0000  0.0000  0.0000  1.0000  0.0000      0.0000  0.0000  0.0000  0.0000  0.0000  0.0000  0.0000  0.0000  0.0000  0.0000
  o =  0.5927  v =  0.0000  0.0000  0.0000  0.0000  0.0000  0.0000  0.0000  0.0000  0.0000  1.0000      0.0000  0.0000  0.0000  0.0000  0.0000  0.0000  0.0000  0.0000  0.0000  0.0000
  o =  1.1008  v =  1.0000  0.0000  0.0000  0.0000  0.0000  0.0000  0.0000  0.0000  0.0000  0.0000      0.0000  0.0000  0.0000  0.0000  0.0000  0.0000  0.0000  0.0000  0.0000  0.0000
  o =  1.1008  v =  0.0000  1.0000  0.0000  0.0000  0.0000  0.0000  0.0000  0.0000  0.0000  0.0000      0.0000  0.0000  0.0000  0.0000  0.0000  0.0000  0.0000  0.0000  0.0000  0.0000
  o =  1.1008  v =  0.0000  0.0000  1.0000  0.0000  0.0000  0.0000  0.0000  0.0000  0.0000  0.0000      0.0000  0.0000  0.0000  0.0000  0.0000  0.0000  0.0000  0.0000  0.0000  0.0000
  o =  1.1008  v =  0.0000  0.0000  0.0000  1.0000  0.0000  0.0000  0.0000  0.0000  0.0000  0.0000      0.0000  0.0000  0.0000  0.0000  0.0000  0.0000  0.0000  0.0000  0.0000  0.0000
  o =  1.1008  v =  0.0000  0.0000  0.0000  0.0000  1.0000  0.0000  0.0000  0.0000  0.0000  0.0000      0.0000  0.0000  0.0000  0.0000  0.0000  0.0000  0.0000  0.0000  0.0000  0.0000
atom =  11  type =  3  l = 2
 
 onsite density matrix
 
spin component  1
 
  1.1008  0.0000  0.0000  0.0000  0.0000
  0.0000  1.1008  0.0000  0.0000  0.0000
  0.0000  0.0000  1.1008  0.0000  0.0000
  0.0000  0.0000  0.0000  1.1008  0.0000
  0.0000  0.0000  0.0000  0.0000  1.1008
 
spin component  2
 
  0.5927  0.0000  0.0000  0.0000  0.0000
  0.0000  0.5927  0.0000  0.0000  0.0000
  0.0000  0.0000  0.5927  0.0000  0.0000
  0.0000  0.0000  0.0000  0.5927  0.0000
  0.0000  0.0000  0.0000  0.0000  0.5927
 
 occupancies and eigenvectors
 
  o =  0.5927  v =  0.0000  0.0000  0.0000  0.0000  0.0000  1.0000  0.0000  0.0000  0.0000  0.0000      0.0000  0.0000  0.0000  0.0000  0.0000  0.0000  0.0000  0.0000  0.0000  0.0000
  o =  0.5927  v =  0.0000  0.0000  0.0000  0.0000  0.0000  0.0000  1.0000  0.0000  0.0000  0.0000      0.0000  0.0000  0.0000  0.0000  0.0000  0.0000  0.0000  0.0000  0.0000  0.0000
  o =  0.5927  v =  0.0000  0.0000  0.0000  0.0000  0.0000  0.0000  0.0000  1.0000  0.0000  0.0000      0.0000  0.0000  0.0000  0.0000  0.0000  0.0000  0.0000  0.0000  0.0000  0.0000
  o =  0.5927  v =  0.0000  0.0000  0.0000  0.0000  0.0000  0.0000  0.0000  0.0000  1.0000  0.0000      0.0000  0.0000  0.0000  0.0000  0.0000  0.0000  0.0000  0.0000  0.0000  0.0000
  o =  0.5927  v =  0.0000  0.0000  0.0000  0.0000  0.0000  0.0000  0.0000  0.0000  0.0000  1.0000      0.0000  0.0000  0.0000  0.0000  0.0000  0.0000  0.0000  0.0000  0.0000  0.0000
  o =  1.1008  v =  1.0000  0.0000  0.0000  0.0000  0.0000  0.0000  0.0000  0.0000  0.0000  0.0000      0.0000  0.0000  0.0000  0.0000  0.0000  0.0000  0.0000  0.0000  0.0000  0.0000
  o =  1.1008  v =  0.0000  1.0000  0.0000  0.0000  0.0000  0.0000  0.0000  0.0000  0.0000  0.0000      0.0000  0.0000  0.0000  0.0000  0.0000  0.0000  0.0000  0.0000  0.0000  0.0000
  o =  1.1008  v =  0.0000  0.0000  1.0000  0.0000  0.0000  0.0000  0.0000  0.0000  0.0000  0.0000      0.0000  0.0000  0.0000  0.0000  0.0000  0.0000  0.0000  0.0000  0.0000  0.0000
  o =  1.1008  v =  0.0000  0.0000  0.0000  1.0000  0.0000  0.0000  0.0000  0.0000  0.0000  0.0000      0.0000  0.0000  0.0000  0.0000  0.0000  0.0000  0.0000  0.0000  0.0000  0.0000
  o =  1.1008  v =  0.0000  0.0000  0.0000  0.0000  1.0000  0.0000  0.0000  0.0000  0.0000  0.0000      0.0000  0.0000  0.0000  0.0000  0.0000  0.0000  0.0000  0.0000  0.0000  0.0000
atom =  12  type =  3  l = 2
 
 onsite density matrix
 
spin component  1
 
  1.1008  0.0000  0.0000  0.0000  0.0000
  0.0000  1.1008  0.0000  0.0000  0.0000
  0.0000  0.0000  1.1008  0.0000  0.0000
  0.0000  0.0000  0.0000  1.1008  0.0000
  0.0000  0.0000  0.0000  0.0000  1.1008
 
spin component  2
 
  0.5927  0.0000  0.0000  0.0000  0.0000
  0.0000  0.5927  0.0000  0.0000  0.0000
  0.0000  0.0000  0.5927  0.0000  0.0000
  0.0000  0.0000  0.0000  0.5927  0.0000
  0.0000  0.0000  0.0000  0.0000  0.5927
 
 occupancies and eigenvectors
 
  o =  0.5927  v =  0.0000  0.0000  0.0000  0.0000  0.0000  1.0000  0.0000  0.0000  0.0000  0.0000      0.0000  0.0000  0.0000  0.0000  0.0000  0.0000  0.0000  0.0000  0.0000  0.0000
  o =  0.5927  v =  0.0000  0.0000  0.0000  0.0000  0.0000  0.0000  1.0000  0.0000  0.0000  0.0000      0.0000  0.0000  0.0000  0.0000  0.0000  0.0000  0.0000  0.0000  0.0000  0.0000
  o =  0.5927  v =  0.0000  0.0000  0.0000  0.0000  0.0000  0.0000  0.0000  1.0000  0.0000  0.0000      0.0000  0.0000  0.0000  0.0000  0.0000  0.0000  0.0000  0.0000  0.0000  0.0000
  o =  0.5927  v =  0.0000  0.0000  0.0000  0.0000  0.0000  0.0000  0.0000  0.0000  1.0000  0.0000      0.0000  0.0000  0.0000  0.0000  0.0000  0.0000  0.0000  0.0000  0.0000  0.0000
  o =  0.5927  v =  0.0000  0.0000  0.0000  0.0000  0.0000  0.0000  0.0000  0.0000  0.0000  1.0000      0.0000  0.0000  0.0000  0.0000  0.0000  0.0000  0.0000  0.0000  0.0000  0.0000
  o =  1.1008  v =  1.0000  0.0000  0.0000  0.0000  0.0000  0.0000  0.0000  0.0000  0.0000  0.0000      0.0000  0.0000  0.0000  0.0000  0.0000  0.0000  0.0000  0.0000  0.0000  0.0000
  o =  1.1008  v =  0.0000  1.0000  0.0000  0.0000  0.0000  0.0000  0.0000  0.0000  0.0000  0.0000      0.0000  0.0000  0.0000  0.0000  0.0000  0.0000  0.0000  0.0000  0.0000  0.0000
  o =  1.1008  v =  0.0000  0.0000  1.0000  0.0000  0.0000  0.0000  0.0000  0.0000  0.0000  0.0000      0.0000  0.0000  0.0000  0.0000  0.0000  0.0000  0.0000  0.0000  0.0000  0.0000
  o =  1.1008  v =  0.0000  0.0000  0.0000  1.0000  0.0000  0.0000  0.0000  0.0000  0.0000  0.0000      0.0000  0.0000  0.0000  0.0000  0.0000  0.0000  0.0000  0.0000  0.0000  0.0000
  o =  1.1008  v =  0.0000  0.0000  0.0000  0.0000  1.0000  0.0000  0.0000  0.0000  0.0000  0.0000      0.0000  0.0000  0.0000  0.0000  0.0000  0.0000  0.0000  0.0000  0.0000  0.0000
atom =  13  type =  4  l = 0
 
 onsite density matrix
 
spin component  1
 
  0.8190
 
spin component  2
 
  0.8190
 
 occupancies and eigenvectors
 
  o =  0.8190  v =  1.0000  0.0000      0.0000  0.0000
  o =  0.8190  v =  0.0000  1.0000      0.0000  0.0000
atom =  14  type =  4  l = 0
 
 onsite density matrix
 
spin component  1
 
  0.8190
 
spin component  2
 
  0.8190
 
 occupancies and eigenvectors
 
  o =  0.8190  v =  1.0000  0.0000      0.0000  0.0000
  o =  0.8190  v =  0.0000  1.0000      0.0000  0.0000
atom =  15  type =  4  l = 0
 
 onsite density matrix
 
spin component  1
 
  0.8190
 
spin component  2
 
  0.8190
 
 occupancies and eigenvectors
 
  o =  0.8190  v =  1.0000  0.0000      0.0000  0.0000
  o =  0.8190  v =  0.0000  1.0000      0.0000  0.0000
atom =  16  type =  4  l = 0
 
 onsite density matrix
 
spin component  1
 
  0.8190
 
spin component  2
 
  0.8190
 
 occupancies and eigenvectors
 
  o =  0.8190  v =  1.0000  0.0000      0.0000  0.0000
  o =  0.8190  v =  0.0000  1.0000      0.0000  0.0000
atom =  17  type =  4  l = 0
 
 onsite density matrix
 
spin component  1
 
  0.8190
 
spin component  2
 
  0.8190
 
 occupancies and eigenvectors
 
  o =  0.8190  v =  1.0000  0.0000      0.0000  0.0000
  o =  0.8190  v =  0.0000  1.0000      0.0000  0.0000
atom =  18  type =  4  l = 0
 
 onsite density matrix
 
spin component  1
 
  0.8190
 
spin component  2
 
  0.8190
 
 occupancies and eigenvectors
 
  o =  0.8190  v =  1.0000  0.0000      0.0000  0.0000
  o =  0.8190  v =  0.0000  1.0000      0.0000  0.0000
atom =  19  type =  4  l = 0
 
 onsite density matrix
 
spin component  1
 
  0.8190
 
spin component  2
 
  0.8190
 
 occupancies and eigenvectors
 
  o =  0.8190  v =  1.0000  0.0000      0.0000  0.0000
  o =  0.8190  v =  0.0000  1.0000      0.0000  0.0000
atom =  20  type =  4  l = 0
 
 onsite density matrix
 
spin component  1
 
  0.8190
 
spin component  2
 
  0.8190
 
 occupancies and eigenvectors
 
  o =  0.8190  v =  1.0000  0.0000      0.0000  0.0000
  o =  0.8190  v =  0.0000  1.0000      0.0000  0.0000
atom =  21  type =  4  l = 0
 
 onsite density matrix
 
spin component  1
 
  0.8190
 
spin component  2
 
  0.8190
 
 occupancies and eigenvectors
 
  o =  0.8190  v =  1.0000  0.0000      0.0000  0.0000
  o =  0.8190  v =  0.0000  1.0000      0.0000  0.0000
atom =  22  type =  4  l = 0
 
 onsite density matrix
 
spin component  1
 
  0.8190
 
spin component  2
 
  0.8190
 
 occupancies and eigenvectors
 
  o =  0.8190  v =  1.0000  0.0000      0.0000  0.0000
  o =  0.8190  v =  0.0000  1.0000      0.0000  0.0000
atom =  23  type =  4  l = 0
 
 onsite density matrix
 
spin component  1
 
  0.8190
 
spin component  2
 
  0.8190
 
 occupancies and eigenvectors
 
  o =  0.8190  v =  1.0000  0.0000      0.0000  0.0000
  o =  0.8190  v =  0.0000  1.0000      0.0000  0.0000
atom =  24  type =  4  l = 0
 
 onsite density matrix
 
spin component  1
 
  0.8190
 
spin component  2
 
  0.8190
 
 occupancies and eigenvectors
 
  o =  0.8190  v =  1.0000  0.0000      0.0000  0.0000
  o =  0.8190  v =  0.0000  1.0000      0.0000  0.0000
atom =  25  type =  4  l = 0
 
 onsite density matrix
 
spin component  1
 
  0.8190
 
spin component  2
 
  0.8190
 
 occupancies and eigenvectors
 
  o =  0.8190  v =  1.0000  0.0000      0.0000  0.0000
  o =  0.8190  v =  0.0000  1.0000      0.0000  0.0000
atom =  26  type =  4  l = 0
 
 onsite density matrix
 
spin component  1
 
  0.8190
 
spin component  2
 
  0.8190
 
 occupancies and eigenvectors
 
  o =  0.8190  v =  1.0000  0.0000      0.0000  0.0000
  o =  0.8190  v =  0.0000  1.0000      0.0000  0.0000
atom =  27  type =  4  l = 0
 
 onsite density matrix
 
spin component  1
 
  0.8190
 
spin component  2
 
  0.8190
 
 occupancies and eigenvectors
 
  o =  0.8190  v =  1.0000  0.0000      0.0000  0.0000
  o =  0.8190  v =  0.0000  1.0000      0.0000  0.0000
atom =  28  type =  4  l = 0
 
 onsite density matrix
 
spin component  1
 
  0.8190
 
spin component  2
 
  0.8190
 
 occupancies and eigenvectors
 
  o =  0.8190  v =  1.0000  0.0000      0.0000  0.0000
  o =  0.8190  v =  0.0000  1.0000      0.0000  0.0000
atom =  29  type =  4  l = 0
 
 onsite density matrix
 
spin component  1
 
  0.8190
 
spin component  2
 
  0.8190
 
 occupancies and eigenvectors
 
  o =  0.8190  v =  1.0000  0.0000      0.0000  0.0000
  o =  0.8190  v =  0.0000  1.0000      0.0000  0.0000
atom =  30  type =  4  l = 0
 
 onsite density matrix
 
spin component  1
 
  0.8190
 
spin component  2
 
  0.8190
 
 occupancies and eigenvectors
 
  o =  0.8190  v =  1.0000  0.0000      0.0000  0.0000
  o =  0.8190  v =  0.0000  1.0000      0.0000  0.0000
     EDDAV:  cpu time    5.1084: real time    5.1277
 BZINTS: Fermi energy: 31.980469;225.000000 electrons
         Band energy:3390.836444;  BLOECHL correction: -0.057985
       DOS:  cpu time    0.0287: real time    0.0288
    --------------------------------------------
      LOOP:  cpu time    5.2673: real time    5.2895

 eigenvalue-minimisations  :  7530
 total energy-change (2. order) : 0.3585073E+04  (-0.7823860E+04)
 number of electron     225.0000000 magnetization      21.0000000
 augmentation part      225.0000000 magnetization      21.0000000

 Free energy of the ion-electron system (eV)
  ---------------------------------------------------
  alpha Z        PSCENC =       983.38117273
  Ewald energy   TEWEN  =    -15476.05083452
  -Hartree energ DENC   =     -3438.96720648
  -exchange      EXHF   =         0.00000000
  -V(xc)+E(xc)   XCENC  =       754.19897145
  PAW double counting   =     14201.63522633   -14291.52419254
  entropy T*S    EENTRO =         0.00000000
  eigenvalues    EBANDS =      3390.83644436
  atomic energy  EATOM  =     17461.56381371
  Solvation  Ediel_sol  =         0.00000000
  ---------------------------------------------------
  free energy    TOTEN  =      3585.07339503 eV

  energy without entropy =     3585.07339503  energy(sigma->0) =     3585.07339503


--------------------------------------------------------------------------------------------------------




--------------------------------------- Iteration      1(   2)  ---------------------------------------


     EDDAV:  cpu time    5.1904: real time    5.2143
 BZINTS: Fermi energy: 16.568187;225.000000 electrons
         Band energy:1053.220401;  BLOECHL correction: -0.024023
       DOS:  cpu time    0.0297: real time    0.0297
    --------------------------------------------
      LOOP:  cpu time    5.2201: real time    5.2441

 eigenvalue-minimisations  :  7776
 total energy-change (2. order) :-0.2337616E+04  (-0.2105545E+04)
 number of electron     225.0000000 magnetization      21.0000000
 augmentation part      225.0000000 magnetization      21.0000000

 Free energy of the ion-electron system (eV)
  ---------------------------------------------------
  alpha Z        PSCENC =       983.38117273
  Ewald energy   TEWEN  =    -15476.05083452
  -Hartree energ DENC   =     -3438.96720648
  -exchange      EXHF   =         0.00000000
  -V(xc)+E(xc)   XCENC  =       754.19897145
  PAW double counting   =     14201.63522633   -14291.52419254
  entropy T*S    EENTRO =         0.00000000
  eigenvalues    EBANDS =      1053.22040052
  atomic energy  EATOM  =     17461.56381371
  Solvation  Ediel_sol  =         0.00000000
  ---------------------------------------------------
  free energy    TOTEN  =      1247.45735120 eV

  energy without entropy =     1247.45735120  energy(sigma->0) =     1247.45735120


--------------------------------------------------------------------------------------------------------




--------------------------------------- Iteration      1(   3)  ---------------------------------------


     EDDAV:  cpu time    5.2071: real time    5.2255
 BZINTS: Fermi energy: 12.251724;225.000000 electrons
         Band energy:  80.022138;  BLOECHL correction: -0.031291
       DOS:  cpu time    0.0294: real time    0.0295
    --------------------------------------------
      LOOP:  cpu time    5.2366: real time    5.2550

 eigenvalue-minimisations  :  7768
 total energy-change (2. order) :-0.9731983E+03  (-0.8699799E+03)
 number of electron     225.0000000 magnetization      21.0000000
 augmentation part      225.0000000 magnetization      21.0000000

 Free energy of the ion-electron system (eV)
  ---------------------------------------------------
  alpha Z        PSCENC =       983.38117273
  Ewald energy   TEWEN  =    -15476.05083452
  -Hartree energ DENC   =     -3438.96720648
  -exchange      EXHF   =         0.00000000
  -V(xc)+E(xc)   XCENC  =       754.19897145
  PAW double counting   =     14201.63522633   -14291.52419254
  entropy T*S    EENTRO =         0.00000000
  eigenvalues    EBANDS =        80.02213817
  atomic energy  EATOM  =     17461.56381371
  Solvation  Ediel_sol  =         0.00000000
  ---------------------------------------------------
  free energy    TOTEN  =       274.25908884 eV

  energy without entropy =      274.25908884  energy(sigma->0) =      274.25908884


--------------------------------------------------------------------------------------------------------




--------------------------------------- Iteration      1(   4)  ---------------------------------------


     EDDAV:  cpu time    7.0084: real time    7.0317
 BZINTS: Fermi energy: 11.565883;225.000000 electrons
         Band energy:-352.629497;  BLOECHL correction: -0.006349
       DOS:  cpu time    0.0260: real time    0.0260
    --------------------------------------------
      LOOP:  cpu time    7.0344: real time    7.0578

 eigenvalue-minimisations  : 11208
 total energy-change (2. order) :-0.4326516E+03  (-0.4078244E+03)
 number of electron     225.0000000 magnetization      21.0000000
 augmentation part      225.0000000 magnetization      21.0000000

 Free energy of the ion-electron system (eV)
  ---------------------------------------------------
  alpha Z        PSCENC =       983.38117273
  Ewald energy   TEWEN  =    -15476.05083452
  -Hartree energ DENC   =     -3438.96720648
  -exchange      EXHF   =         0.00000000
  -V(xc)+E(xc)   XCENC  =       754.19897145
  PAW double counting   =     14201.63522633   -14291.52419254
  entropy T*S    EENTRO =         0.00000000
  eigenvalues    EBANDS =      -352.62949657
  atomic energy  EATOM  =     17461.56381371
  Solvation  Ediel_sol  =         0.00000000
  ---------------------------------------------------
  free energy    TOTEN  =      -158.39254589 eV

  energy without entropy =     -158.39254589  energy(sigma->0) =     -158.39254589


--------------------------------------------------------------------------------------------------------




--------------------------------------- Iteration      1(   5)  ---------------------------------------


     EDDAV:  cpu time    7.8716: real time    7.8987
 BZINTS: Fermi energy: 11.083266;225.000000 electrons
         Band energy:-443.357777;  BLOECHL correction: -0.085063
       DOS:  cpu time    0.0275: real time    0.0275
    CHARGE:  cpu time    0.1937: real time    0.1946
    MIXING:  cpu time    0.0034: real time    0.0035
    --------------------------------------------
      LOOP:  cpu time    8.0962: real time    8.1244

 eigenvalue-minimisations  : 12754
 total energy-change (2. order) :-0.9072828E+02  (-0.8703396E+02)
 number of electron     225.0000054 magnetization      18.9398127
 augmentation part       28.5666095 magnetization      14.0349778

 Broyden mixing:
  rms(total) = 0.75880E+01    rms(broyden)= 0.75875E+01
  rms(prec ) = 0.86064E+01
  weight for this iteration     100.00

 Free energy of the ion-electron system (eV)
  ---------------------------------------------------
  alpha Z        PSCENC =       983.38117273
  Ewald energy   TEWEN  =    -15476.05083452
  -Hartree energ DENC   =     -3438.96720648
  -exchange      EXHF   =         0.00000000
  -V(xc)+E(xc)   XCENC  =       754.19897145
  PAW double counting   =     14201.63522633   -14291.52419254
  entropy T*S    EENTRO =         0.00000000
  eigenvalues    EBANDS =      -443.35777697
  atomic energy  EATOM  =     17461.56381371
  Solvation  Ediel_sol  =         0.00000000
  ---------------------------------------------------
  free energy    TOTEN  =      -249.12082630 eV

  energy without entropy =     -249.12082630  energy(sigma->0) =     -249.12082630


--------------------------------------------------------------------------------------------------------




--------------------------------------- Iteration      1(   6)  ---------------------------------------


    POTLOK:  cpu time    0.0863: real time    0.0879
    SETDIJ:  cpu time    0.0138: real time    0.0138
atom =   1  type =  1  l = 0
 
 onsite density matrix
 
spin component  1
 
  1.0561
 
spin component  2
 
  1.0562
 
 occupancies and eigenvectors
 
  o =  1.0561  v =  1.0000  0.0000      0.0000  0.0000
  o =  1.0562  v =  0.0000  1.0000      0.0000  0.0000
atom =   2  type =  1  l = 0
 
 onsite density matrix
 
spin component  1
 
  1.0559
 
spin component  2
 
  1.0562
 
 occupancies and eigenvectors
 
  o =  1.0559  v =  1.0000  0.0000      0.0000  0.0000
  o =  1.0562  v =  0.0000  1.0000      0.0000  0.0000
atom =   3  type =  1  l = 0
 
 onsite density matrix
 
spin component  1
 
  1.0560
 
spin component  2
 
  1.0564
 
 occupancies and eigenvectors
 
  o =  1.0560  v =  1.0000  0.0000      0.0000  0.0000
  o =  1.0564  v =  0.0000  1.0000      0.0000  0.0000
atom =   4  type =  1  l = 0
 
 onsite density matrix
 
spin component  1
 
  1.0558
 
spin component  2
 
  1.0566
 
 occupancies and eigenvectors
 
  o =  1.0558  v =  1.0000  0.0000      0.0000  0.0000
  o =  1.0566  v =  0.0000  1.0000      0.0000  0.0000
atom =   5  type =  1  l = 0
 
 onsite density matrix
 
spin component  1
 
  1.0557
 
spin component  2
 
  1.0567
 
 occupancies and eigenvectors
 
  o =  1.0557  v =  1.0000  0.0000      0.0000  0.0000
  o =  1.0567  v =  0.0000  1.0000      0.0000  0.0000
atom =   6  type =  1  l = 0
 
 onsite density matrix
 
spin component  1
 
  1.0573
 
spin component  2
 
  1.0578
 
 occupancies and eigenvectors
 
  o =  1.0573  v =  1.0000  0.0000      0.0000  0.0000
  o =  1.0578  v =  0.0000  1.0000      0.0000  0.0000
atom =   7  type =  2  l = 2
 
 onsite density matrix
 
spin component  1
 
  0.9301  0.0000  0.0000 -0.0124  0.0000
  0.0000  0.9304  0.0079  0.0000  0.0004
  0.0000  0.0079  0.3452  0.0000 -0.0211
 -0.0124  0.0000  0.0000  0.9475  0.0000
  0.0000  0.0004 -0.0211  0.0000  0.3660
 
spin component  2
 
  0.0449  0.0000  0.0000  0.0076  0.0000
  0.0000  0.0478 -0.0042  0.0000 -0.0007
  0.0000 -0.0042  0.4546  0.0000  0.0150
  0.0076  0.0000  0.0000  0.0346  0.0000
  0.0000 -0.0007  0.0150  0.0000  0.4400
 
 occupancies and eigenvectors
 
  o =  0.0306  v =  0.0000  0.0000  0.0000  0.0000  0.0000  0.4699 -0.0000 -0.0000 -0.8827 -0.0000      0.0000  0.0000  0.0000  0.0000  0.0000  0.0000  0.0000  0.0000  0.0000  0.0000
  o =  0.0478  v =  0.0000  0.0000  0.0000  0.0000  0.0000 -0.0000 -0.9999 -0.0102 -0.0000 -0.0013      0.0000  0.0000  0.0000  0.0000  0.0000  0.0000  0.0000  0.0000  0.0000  0.0000
  o =  0.0490  v =  0.0000  0.0000  0.0000  0.0000  0.0000  0.8827 -0.0000 -0.0000  0.4699 -0.0000      0.0000  0.0000  0.0000  0.0000  0.0000  0.0000  0.0000  0.0000  0.0000  0.0000
  o =  0.3320  v =  0.0000 -0.0116  0.8497  0.0000  0.5272  0.0000  0.0000  0.0000  0.0000  0.0000      0.0000  0.0000  0.0000  0.0000  0.0000  0.0000  0.0000  0.0000  0.0000  0.0000
  o =  0.3791  v =  0.0000 -0.0069  0.5272  0.0000 -0.8497  0.0000  0.0000  0.0000  0.0000  0.0000      0.0000  0.0000  0.0000  0.0000  0.0000  0.0000  0.0000  0.0000  0.0000  0.0000
  o =  0.4307  v =  0.0000  0.0000  0.0000  0.0000  0.0000  0.0000 -0.0043  0.5294  0.0000 -0.8484      0.0000  0.0000  0.0000  0.0000  0.0000  0.0000  0.0000  0.0000  0.0000  0.0000
  o =  0.4640  v =  0.0000  0.0000  0.0000  0.0000  0.0000  0.0000 -0.0093  0.8483  0.0000  0.5294      0.0000  0.0000  0.0000  0.0000  0.0000  0.0000  0.0000  0.0000  0.0000  0.0000
  o =  0.9236  v = -0.8869  0.0000  0.0000 -0.4620  0.0000  0.0000  0.0000  0.0000  0.0000  0.0000      0.0000  0.0000  0.0000  0.0000  0.0000  0.0000  0.0000  0.0000  0.0000  0.0000
  o =  0.9306  v =  0.0000  0.9999  0.0135  0.0000  0.0003  0.0000  0.0000  0.0000  0.0000  0.0000      0.0000  0.0000  0.0000  0.0000  0.0000  0.0000  0.0000  0.0000  0.0000  0.0000
  o =  0.9540  v = -0.4620  0.0000  0.0000  0.8869  0.0000  0.0000  0.0000  0.0000  0.0000  0.0000      0.0000  0.0000  0.0000  0.0000  0.0000  0.0000  0.0000  0.0000  0.0000  0.0000
atom =   8  type =  2  l = 2
 
 onsite density matrix
 
spin component  1
 
  0.9401  0.0000  0.0000  0.0069  0.0000
  0.0000  0.9385 -0.0065  0.0000  0.0049
  0.0000 -0.0065  0.3535  0.0000 -0.0234
  0.0069  0.0000  0.0000  0.9472  0.0000
  0.0000  0.0049 -0.0234  0.0000  0.3729
 
spin component  2
 
  0.0409  0.0000  0.0000 -0.0042  0.0000
  0.0000  0.0457  0.0041  0.0000 -0.0026
  0.0000  0.0041  0.4498  0.0000  0.0170
 -0.0042  0.0000  0.0000  0.0357  0.0000
  0.0000 -0.0026  0.0170  0.0000  0.4363
 
 occupancies and eigenvectors
 
  o =  0.0334  v =  0.0000  0.0000  0.0000  0.0000  0.0000  0.4858 -0.0000  0.0000  0.8741 -0.0000      0.0000  0.0000  0.0000  0.0000  0.0000  0.0000  0.0000  0.0000  0.0000  0.0000
  o =  0.0432  v =  0.0000  0.0000  0.0000  0.0000  0.0000  0.8741  0.0000 -0.0000 -0.4858  0.0000      0.0000  0.0000  0.0000  0.0000  0.0000  0.0000  0.0000  0.0000  0.0000  0.0000
  o =  0.0457  v =  0.0000  0.0000  0.0000  0.0000  0.0000  0.0000 -0.9999  0.0104 -0.0000 -0.0072      0.0000  0.0000  0.0000  0.0000  0.0000  0.0000  0.0000  0.0000  0.0000  0.0000
  o =  0.3378  v =  0.0000  0.0044  0.8316  0.0000  0.5553  0.0000  0.0000  0.0000  0.0000  0.0000      0.0000  0.0000  0.0000  0.0000  0.0000  0.0000  0.0000  0.0000  0.0000  0.0000
  o =  0.3884  v =  0.0000  0.0140  0.5552  0.0000 -0.8316  0.0000  0.0000  0.0000  0.0000  0.0000      0.0000  0.0000  0.0000  0.0000  0.0000  0.0000  0.0000  0.0000  0.0000  0.0000
[...]
 -0.000   0.000  -0.000  -0.000   0.000   0.000  -0.001   0.000   0.000  -0.000  -0.000   0.000  -0.000   0.000   0.000   0.000
  0.000   0.000   0.000   0.000   0.000   0.000   0.000   0.000   0.000   0.000   0.000   0.000   0.000  -0.000   0.000   0.000
  0.000   0.000  -0.000  -0.000   0.000  -0.000  -0.000   0.000   0.000  -0.000  -0.000   0.000   0.000   0.000   0.000   0.000
  0.000   0.000   0.000   0.000  -0.000   0.000   0.000  -0.001  -0.000   0.000   0.000   0.000   0.000   0.000   0.000   0.000
 -0.000  -0.000   0.000  -0.000   0.000  -0.001   0.001   0.000   0.000   0.000  -0.000   0.000   0.001   0.000  -0.000   0.000
  0.000   0.000   0.000   0.000  -0.001   0.000   0.000   0.002   0.000   0.000   0.000  -0.000   0.000  -0.000   0.000   0.000
  0.000   0.000   0.000  -0.000   0.000  -0.001  -0.000   0.000   0.000  -0.000   0.000   0.000   0.000   0.000   0.000  -0.000
  0.000  -0.001   0.000  -0.000   0.000  -0.000   0.001   0.000   0.000   0.001   0.000   0.000   0.000   0.000  -0.000  -0.000
  0.000   0.000   0.000   0.000   0.000   0.000   0.000  -0.001  -0.000   0.000   0.000  -0.001   0.000   0.000   0.000   0.000
 -0.000  -0.000   0.000  -0.000   0.000   0.001   0.000   0.000   0.000   0.000   0.000   0.000  -0.000   0.000  -0.000  -0.000
  0.000   0.000   0.000   0.000  -0.000   0.000   0.000   0.001   0.001   0.000   0.000  -0.000   0.000  -0.000   0.000   0.000


------------------------ aborting loop because EDIFF is reached ----------------------------------------


 


 total charge     
 
# of ion       s       p       d       f       tot
--------------------------------------------------
    1        2.000   5.699   0.487   0.191   8.376
    2        2.000   5.696   0.487   0.187   8.369
    3        2.001   5.698   0.498   0.192   8.389
    4        2.000   5.700   0.496   0.194   8.391
    5        2.000   5.699   0.491   0.192   8.381
    6        2.001   5.698   0.499   0.192   8.390
    7        0.343   0.532   4.861   0.000   5.735
    8        0.347   0.543   4.869   0.000   5.759
    9        0.348   0.545   4.868   0.000   5.761
   10        0.402   0.583   8.324   0.000   9.309
   11        0.408   0.602   8.332   0.000   9.341
   12        0.400   0.576   8.317   0.000   9.293
   13        1.562   3.453   0.000   0.000   5.016
   14        1.561   3.461   0.000   0.000   5.022
   15        1.564   3.449   0.000   0.000   5.013
   16        1.562   3.458   0.000   0.000   5.019
   17        1.562   3.460   0.000   0.000   5.021
   18        1.558   3.452   0.000   0.000   5.011
   19        1.562   3.460   0.000   0.000   5.022
   20        1.561   3.463   0.000   0.000   5.024
   21        1.558   3.454   0.000   0.000   5.012
   22        1.563   3.448   0.000   0.000   5.011
   23        1.562   3.457   0.000   0.000   5.019
   24        1.564   3.450   0.000   0.000   5.013
   25        1.566   3.454   0.000   0.000   5.019
   26        1.566   3.448   0.000   0.000   5.013
   27        1.557   3.455   0.000   0.000   5.012
   28        1.566   3.453   0.000   0.000   5.019
   29        1.558   3.457   0.000   0.000   5.015
   30        1.557   3.451   0.000   0.000   5.008
--------------------------------------------------
tot         42.355  99.754  42.528   1.147 185.785

 


 magnetization (x)
 
# of ion       s       p       d       f       tot
--------------------------------------------------
    1        0.000   0.001   0.009   0.004   0.015
    2       -0.000   0.000   0.003   0.002   0.005
    3        0.000   0.001   0.006   0.003   0.010
    4        0.000   0.001   0.010   0.005   0.016
    5        0.000   0.001   0.010   0.004   0.015
    6        0.000   0.001   0.006   0.004   0.010
    7        0.023   0.021   3.373   0.000   3.418
    8        0.024   0.025   3.366   0.000   3.415
    9        0.024   0.026   3.348   0.000   3.398
   10        0.014   0.006   1.628   0.000   1.648
   11        0.014   0.011   1.594   0.000   1.619
   12        0.014   0.004   1.626   0.000   1.644
   13        0.004  -0.040   0.000   0.000  -0.035
   14        0.002  -0.016   0.000   0.000  -0.014
   15        0.005  -0.042   0.000   0.000  -0.037
   16        0.005  -0.011   0.000   0.000  -0.006
   17        0.005  -0.015   0.000   0.000  -0.010
   18        0.007  -0.012   0.000   0.000  -0.005
   19        0.005  -0.019   0.000   0.000  -0.014
   20        0.002  -0.013   0.000   0.000  -0.012
   21        0.007  -0.006   0.000   0.000   0.001
   22        0.005  -0.036   0.000   0.000  -0.031
   23        0.005  -0.017   0.000   0.000  -0.012
   24        0.005  -0.039   0.000   0.000  -0.034
   25        0.004  -0.061   0.000   0.000  -0.056
   26        0.004  -0.060   0.000   0.000  -0.055
   27        0.006  -0.011   0.000   0.000  -0.005
   28        0.004  -0.060   0.000   0.000  -0.056
   29        0.006  -0.023   0.000   0.000  -0.016
   30        0.006  -0.014   0.000   0.000  -0.008
--------------------------------------------------
tot          0.203  -0.396  14.980   0.022  14.809

 
    CHARGE:  cpu time    0.1888: real time    0.1892
    FORLOC:  cpu time    0.0124: real time    0.0124
    FORNL :  cpu time    1.2201: real time    1.2235
    STRESS:  cpu time    3.6670: real time    3.6778
    FORCOR:  cpu time    0.0981: real time    0.0984
    FORHAR:  cpu time    0.0215: real time    0.0216
    MIXING:  cpu time    0.0052: real time    0.0052
    OFIELD:  cpu time    0.0001: real time    0.0003

  FORCE on cell =-STRESS in cart. coord.  units (eV):
  Direction    XX          YY          ZZ          XY          YZ          ZX
  --------------------------------------------------------------------------------------
  Alpha Z   983.38117   983.38117   983.38117
  Ewald   -5076.80137 -5206.89754 -5192.40782     0.00000    -4.65714    -0.00000
  Hartree  1243.06588  1126.81526  1137.50350     0.00000    -5.09081    -0.00000
  E(xc)   -1046.13641 -1046.41290 -1046.40756     0.00000     0.01779     0.00000
  Local    -856.60384  -610.23504  -635.31450     0.00000     9.41917     0.00000
  n-local   416.69193   416.25719   416.27599     0.00158    -0.24712    -0.00105
  augment   489.52180   489.15097   489.15048    -0.00000    -0.01492    -0.00000
  Kinetic  3846.99007  3847.72248  3847.83660    -0.00048     0.58718     0.00054
  Fock        0.00000     0.00000     0.00000     0.00000     0.00000     0.00000
  -------------------------------------------------------------------------------------
  Total       0.10923    -0.21841     0.01785     0.00000     0.01416     0.00000
  in kB       0.49835    -0.99650     0.08143     0.00000     0.06459     0.00000
  external pressure =       -0.14 kB  Pullay stress =        0.00 kB


 VOLUME and BASIS-vectors are now :
 -----------------------------------------------------------------------------
  energy-cutoff  :      520.00
  volume of cell :      351.17
      direct lattice vectors                 reciprocal lattice vectors
    -3.880363561  0.000000000  0.000000000    -0.257707811  0.000000000  0.000000000
     0.000000000  3.884319116  7.763694057     0.000000000  0.085804324  0.085875180
     0.000000000  7.771575254 -7.765162882     0.000000000  0.085788094 -0.042921363

  length of vectors
     3.880363561  8.681179667 10.986133829     0.257707811  0.121395752  0.095926224


 FORCES acting on ions
    electron-ion (+dipol)            ewald-force                    non-local-force                 convergence-correction
 -----------------------------------------------------------------------------------------------
   0.370E-14 0.112E+02 -.173E+01   -.476E-13 -.111E+02 0.152E+01   0.000E+00 -.835E-01 0.159E+00   -.237E-14 -.187E-01 0.337E-02
   0.561E-14 -.730E+02 -.676E+02   -.171E-13 0.723E+02 0.670E+02   0.000E+00 0.713E+00 0.665E+00   -.108E-13 0.223E-01 0.138E-01
   0.480E-14 -.167E+02 0.147E+03   -.397E-13 0.167E+02 -.145E+03   0.000E+00 0.275E-01 -.140E+01   -.948E-14 0.263E-01 -.290E-01
   0.347E-14 -.784E+02 -.649E+02   0.398E-13 0.777E+02 0.644E+02   0.000E+00 0.706E+00 0.455E+00   -.912E-14 0.245E-01 0.121E-02
   0.449E-14 0.533E+01 0.403E-01   -.414E-13 -.536E+01 -.163E+00   0.000E+00 0.439E-01 0.862E-01   -.122E-15 -.761E-02 0.153E-02
   0.657E-14 0.153E+03 -.978E+01   0.117E-13 -.151E+03 0.991E+01   0.000E+00 -.148E+01 -.853E-01   -.239E-13 -.467E-01 0.935E-02
   -.584E-13 0.337E+02 0.357E+02   0.261E-13 -.334E+02 -.354E+02   0.000E+00 -.331E+00 -.362E+00   -.165E-13 0.162E-02 -.426E-02
   -.497E-13 0.406E+01 -.372E+02   -.465E-13 -.392E+01 0.369E+02   0.000E+00 -.134E+00 0.271E+00   -.161E-14 -.257E-02 0.139E-01
   -.640E-13 -.374E+02 0.460E+01   0.727E-14 0.370E+02 -.464E+01   0.000E+00 0.479E+00 0.623E-01   -.290E-14 0.551E-02 -.107E-01
   -.271E-12 -.425E+02 0.161E+01   -.257E-13 0.414E+02 -.132E+01   0.000E+00 0.111E+01 -.304E+00   -.471E-13 0.269E-01 -.108E-01
   -.292E-12 0.383E+02 0.351E+02   0.841E-13 -.375E+02 -.343E+02   0.000E+00 -.854E+00 -.770E+00   -.522E-13 -.249E-01 -.162E-01
   -.311E-12 0.388E+01 -.414E+02   0.118E-13 -.363E+01 0.402E+02   0.000E+00 -.231E+00 0.118E+01   -.467E-13 -.841E-02 0.300E-01
   -.122E-12 0.464E+01 -.487E+02   -.173E-14 -.473E+01 0.436E+02   0.000E+00 0.993E-01 0.508E+01   -.158E-13 -.695E-02 -.219E-01
   -.119E-12 0.783E+01 -.139E+02   -.564E-14 -.756E+01 0.143E+02   0.000E+00 -.314E+00 -.292E+00   -.176E-13 0.126E-02 -.891E-02
   -.112E-12 0.291E+01 0.610E+02   0.229E-13 -.315E+01 -.551E+02   0.000E+00 0.219E+00 -.591E+01   -.261E-13 0.690E-02 0.305E-01
   -.112E-12 -.170E+02 -.549E+02   0.247E-14 0.159E+02 0.496E+02   0.000E+00 0.109E+01 0.528E+01   -.109E-13 0.261E-02 -.336E-01
   -.111E-12 -.715E+01 0.685E+02   0.125E-13 0.750E+01 -.638E+02   0.000E+00 -.344E+00 -.476E+01   -.247E-13 0.807E-03 0.260E-01
   -.114E-12 0.851E+01 -.127E+02   -.120E-13 -.788E+01 0.126E+02   0.000E+00 -.616E+00 0.466E-01   -.167E-13 -.475E-02 0.865E-02
   -.107E-12 -.562E+02 -.105E+02   -.101E-13 0.517E+02 0.101E+02   0.000E+00 0.449E+01 0.426E+00   -.160E-13 -.200E-01 -.330E-02
   -.107E-12 -.157E+02 0.702E+01   0.278E-13 0.156E+02 -.662E+01   0.000E+00 0.108E+00 -.411E+00   -.217E-13 0.835E-02 -.274E-02
   -.114E-12 -.150E+02 0.708E+01   -.552E-14 0.148E+02 -.641E+01   0.000E+00 0.111E+00 -.668E+00   -.219E-13 0.116E-01 -.891E-03
   -.113E-12 -.459E+02 -.142E+01   -.357E-14 0.398E+02 0.589E+00   0.000E+00 0.609E+01 0.834E+00   -.148E-13 -.346E-01 -.262E-02
   -.112E-12 0.710E+02 -.622E+01   -.218E-14 -.660E+02 0.645E+01   0.000E+00 -.495E+01 -.245E+00   -.245E-13 0.101E-01 0.540E-02
   -.993E-13 0.611E+02 0.410E+01   0.128E-13 -.549E+02 -.444E+01   0.000E+00 -.617E+01 0.326E+00   -.283E-13 0.259E-01 0.414E-02
   -.350E-16 0.497E+00 -.288E+02   0.290E-13 -.186E+00 0.292E+02   0.000E+00 -.335E+00 -.505E+00   -.293E-13 -.309E-02 0.830E-02
   0.126E-14 0.249E+02 0.262E+02   -.307E-13 -.254E+02 -.267E+02   0.000E+00 0.502E+00 0.529E+00   -.144E-13 0.794E-03 -.449E-02
   0.389E-14 -.240E+02 0.100E+01   0.885E-14 0.239E+02 -.969E+00   0.000E+00 0.142E+00 -.401E-01   -.155E-13 0.725E-02 -.497E-02
   -.171E-15 -.263E+02 0.366E+01   -.445E-14 0.265E+02 -.363E+01   0.000E+00 -.180E+00 -.204E-01   -.253E-13 0.500E-02 -.600E-02
   0.543E-14 0.233E+02 0.217E+02   -.184E-13 -.237E+02 -.220E+02   0.000E+00 0.395E+00 0.334E+00   -.113E-13 -.552E-02 -.562E-03
   0.359E-14 0.118E+01 -.240E+02   -.361E-14 -.731E+00 0.241E+02   0.000E+00 -.445E+00 -.101E+00   -.179E-13 -.510E-02 0.767E-02
 -----------------------------------------------------------------------------------------------
   -.235E-11 0.130E+00 0.134E+00   -.188E-13 0.139E-12 -.355E-14   0.000E+00 -.135E+00 -.138E+00   -.575E-12 -.105E-02 0.277E-02
 
 
 POSITION                                       TOTAL-FORCE (eV/Angst)
 -----------------------------------------------------------------------------------
      0.00000      3.89113      3.86477         0.000000     -0.059919     -0.040037
      0.00000      3.81603     -0.06728         0.000000     -0.017790      0.039163
      0.00000      3.88692     -3.73881         0.000000      0.060181      0.037863
      0.00000      7.69756     -0.05086         0.000000     -0.001009     -0.016569
      0.00000      7.76541     -3.89312         0.000000     -0.000846     -0.034554
      0.00000      0.14570      0.00656         0.000000      0.043232      0.046436
     -1.94018      9.70916      1.93636         0.000000     -0.033084     -0.056951
     -1.94018      9.71990     -1.93795         0.000000     -0.002325      0.027053
     -1.94018      5.82832      1.94323         0.000000      0.033698      0.013773
     -1.94018      5.84088     -1.94202         0.000000      0.003180     -0.022463
     -1.94018      5.80995      5.80702         0.000000     -0.008232      0.016984
     -1.94018      1.94737      1.95961         0.000000      0.005343      0.009526
     -1.94018      9.70879     -3.83291         0.000000      0.008843     -0.020154
     -1.94018      9.69562     -0.00492         0.000000     -0.036968      0.056924
     -1.94018      5.83878     -3.94104         0.000000     -0.017495      0.020857
     -1.94018      5.85712      0.04842         0.000000     -0.002495     -0.017355
     -1.94018      5.82147      3.83772         0.000000      0.006111     -0.020378
     -1.94018      1.92045      0.00621         0.000000      0.009768     -0.022666
     -1.94018      7.81536     -1.93823         0.000000     -0.010909      0.003140
     -1.94018      7.77276      1.92436         0.000000      0.007368     -0.013366
     -1.94018      3.88817     -1.96188         0.000000     -0.008716     -0.000851
     -1.94018      3.94330      1.95620         0.000000     -0.025430     -0.003029
     -1.94018      3.83717      5.81700         0.000000      0.012422     -0.008367
     -1.94018      7.71047     -5.81588         0.000000      0.022114     -0.009830
      0.00000      9.70263     -1.94307         0.000000     -0.026929     -0.019770
      0.00000      9.70999      1.93565         0.000000      0.000866      0.005081
      0.00000      5.84815     -1.94827         0.000000     -0.020893     -0.011247
      0.00000      5.84214      1.94459         0.000000      0.005528     -0.000736
      0.00000      5.82147      5.81973         0.000000      0.051559      0.039934
      0.00000      1.93058      1.95046         0.000000      0.002825      0.001589
 -----------------------------------------------------------------------------------
    total drift:                               -0.000000     -0.006660     -0.001349


--------------------------------------------------------------------------------------------------------



  FREE ENERGIE OF THE ION-ELECTRON SYSTEM (eV)
  ---------------------------------------------------
  free  energy   TOTEN  =      -220.48282081 eV

  energy  without entropy=     -220.48282081  energy(sigma->0) =     -220.48282081
 


--------------------------------------------------------------------------------------------------------


    POTLOK:  cpu time    0.0989: real time    0.0991


--------------------------------------------------------------------------------------------------------


     LOOP+:  cpu time  114.8761: real time  115.2949
    4ORBIT:  cpu time    0.0000: real time    0.0000
 


 total charge     
 
# of ion       s       p       d       f       tot
--------------------------------------------------
    1        2.000   5.699   0.487   0.191   8.376
    2        2.000   5.696   0.487   0.187   8.369
    3        2.001   5.698   0.498   0.192   8.389
    4        2.000   5.700   0.496   0.194   8.391
    5        2.000   5.699   0.491   0.192   8.381
    6        2.001   5.698   0.499   0.192   8.390
    7        0.343   0.532   4.861   0.000   5.735
    8        0.347   0.543   4.869   0.000   5.759
    9        0.348   0.545   4.868   0.000   5.761
   10        0.402   0.583   8.324   0.000   9.309
   11        0.408   0.602   8.332   0.000   9.341
   12        0.400   0.576   8.317   0.000   9.293
   13        1.562   3.453   0.000   0.000   5.016
   14        1.561   3.461   0.000   0.000   5.022
   15        1.564   3.449   0.000   0.000   5.013
   16        1.562   3.458   0.000   0.000   5.019
   17        1.562   3.460   0.000   0.000   5.021
   18        1.558   3.452   0.000   0.000   5.011
   19        1.562   3.460   0.000   0.000   5.022
   20        1.561   3.463   0.000   0.000   5.024
   21        1.558   3.454   0.000   0.000   5.012
   22        1.563   3.448   0.000   0.000   5.011
   23        1.562   3.457   0.000   0.000   5.019
   24        1.564   3.450   0.000   0.000   5.013
   25        1.566   3.454   0.000   0.000   5.019
   26        1.566   3.448   0.000   0.000   5.013
   27        1.557   3.455   0.000   0.000   5.012
   28        1.566   3.453   0.000   0.000   5.019
   29        1.558   3.457   0.000   0.000   5.015
   30        1.557   3.451   0.000   0.000   5.008
--------------------------------------------------
tot         42.355  99.754  42.528   1.147 185.785

 


 magnetization (x)
 
# of ion       s       p       d       f       tot
--------------------------------------------------
    1        0.000   0.001   0.009   0.004   0.015
    2       -0.000   0.000   0.003   0.002   0.005
    3        0.000   0.001   0.006   0.003   0.010
    4        0.000   0.001   0.010   0.005   0.016
    5        0.000   0.001   0.010   0.004   0.015
    6        0.000   0.001   0.006   0.004   0.010
    7        0.023   0.021   3.373   0.000   3.418
    8        0.024   0.025   3.366   0.000   3.415
    9        0.024   0.026   3.348   0.000   3.398
   10        0.014   0.006   1.628   0.000   1.648
   11        0.014   0.011   1.594   0.000   1.619
   12        0.014   0.004   1.626   0.000   1.644
   13        0.004  -0.040   0.000   0.000  -0.035
   14        0.002  -0.016   0.000   0.000  -0.014
   15        0.005  -0.042   0.000   0.000  -0.037
   16        0.005  -0.011   0.000   0.000  -0.006
   17        0.005  -0.015   0.000   0.000  -0.010
   18        0.007  -0.012   0.000   0.000  -0.005
   19        0.005  -0.019   0.000   0.000  -0.014
   20        0.002  -0.013   0.000   0.000  -0.012
   21        0.007  -0.006   0.000   0.000   0.001
   22        0.005  -0.036   0.000   0.000  -0.031
   23        0.005  -0.017   0.000   0.000  -0.012
   24        0.005  -0.039   0.000   0.000  -0.034
   25        0.004  -0.061   0.000   0.000  -0.056
   26        0.004  -0.060   0.000   0.000  -0.055
   27        0.006  -0.011   0.000   0.000  -0.005
   28        0.004  -0.060   0.000   0.000  -0.056
   29        0.006  -0.023   0.000   0.000  -0.016
   30        0.006  -0.014   0.000   0.000  -0.008
--------------------------------------------------
tot          0.203  -0.396  14.980   0.022  14.809

 
 BZINTS: Fermi energy:  7.687436;225.000000 electrons
         Band energy:-329.637637;  BLOECHL correction: -0.173321

 total amount of memory used by VASP MPI-rank0    77601. kBytes
=======================================================================

   base      :      30000. kBytes
   nonlr-proj:       7523. kBytes
   fftplans  :       2934. kBytes
   grid      :       8258. kBytes
   one-center:        294. kBytes
   wavefun   :      28592. kBytes
 
  
  
 General timing and accounting informations for this job:
 ========================================================
  
                  Total CPU time used (sec):      124.769
                            User time (sec):      120.713
                          System time (sec):        4.056
                         Elapsed time (sec):      125.351
  
                   Maximum memory used (kb):      134656.
                   Average memory used (kb):           0.
  
                          Minor page faults:        40648
                          Major page faults:            0
                 Voluntary context switches:         1495
