       N       E                     dE             d eps       ncg     rms          rms(c)
DAV:   1     0.356016805890E+04    0.35602E+04   -0.77582E+04  7360   0.243E+03
DAV:   2     0.124151531150E+04   -0.23187E+04   -0.20896E+04  7720   0.637E+02
DAV:   3     0.262196420447E+03   -0.97932E+03   -0.88360E+03  8064   0.332E+02
DAV:   4    -0.162381950618E+03   -0.42458E+03   -0.40020E+03 11120   0.185E+02
DAV:   5    -0.255155365698E+03   -0.92773E+02   -0.89349E+02 12496   0.975E+01    0.716E+01
RMM:   6    -0.229053727132E+03    0.26102E+02   -0.72826E+02 11424   0.107E+02    0.106E+02
RMM:   7    -0.229285345385E+03   -0.23162E+00   -0.14797E+02 12190   0.366E+01    0.442E+01
RMM:   8    -0.222837348263E+03    0.64480E+01   -0.62468E+01  8815   0.403E+01    0.234E+01
RMM:   9    -0.226381972391E+03   -0.35446E+01   -0.40632E+01 11465   0.166E+01    0.170E+01
RMM:  10    -0.226766517332E+03   -0.38454E+00   -0.87631E+00 12293   0.725E+00    0.771E+00
RMM:  11    -0.226509382673E+03    0.25713E+00   -0.39302E+00 11464   0.684E+00    0.448E+00
RMM:  12    -0.226614923066E+03   -0.10554E+00   -0.16514E+00 12483   0.290E+00    0.253E+00
RMM:  13    -0.226647732728E+03   -0.32810E-01   -0.45892E-01 12735   0.155E+00    0.202E+00
RMM:  14    -0.226667692534E+03   -0.19960E-01   -0.22191E-01 11958   0.116E+00    0.113E+00
RMM:  15    -0.226673423974E+03   -0.57314E-02   -0.75032E-02 10583   0.716E-01    0.708E-01
RMM:  16    -0.226676806729E+03   -0.33828E-02   -0.46057E-02  8980   0.439E-01    0.467E-01
RMM:  17    -0.226678666865E+03   -0.18601E-02   -0.29037E-02  9120   0.488E-01    0.255E-01
RMM:  18    -0.226681038838E+03   -0.23720E-02   -0.20317E-02  7969   0.403E-01    0.131E-01
RMM:  19    -0.226681742261E+03   -0.70342E-03   -0.92928E-03  7089   0.337E-01
   1 F= -.22668174E+03 E0= -.22668174E+03  d E =0.000000E+00  mag=    18.0009
