       N       E                     dE             d eps       ncg     rms          rms(c)
DAV:   1     0.361735757455E+04    0.36174E+04   -0.80017E+04  2504   0.251E+03
DAV:   2     0.125722401131E+04   -0.23601E+04   -0.21330E+04  2608   0.644E+02
DAV:   3     0.277556100609E+03   -0.97967E+03   -0.87633E+03  2560   0.328E+02
DAV:   4    -0.151677362957E+03   -0.42923E+03   -0.40690E+03  3736   0.180E+02
DAV:   5    -0.243939790764E+03   -0.92262E+02   -0.88607E+02  4334   0.980E+01    0.832E+01
RMM:   6    -0.217402058053E+03    0.26538E+02   -0.73758E+02  4022   0.110E+02    0.105E+02
RMM:   7    -0.216520310573E+03    0.88175E+00   -0.14268E+02  4059   0.366E+01    0.477E+01
RMM:   8    -0.210542590045E+03    0.59777E+01   -0.57295E+01  3306   0.376E+01    0.204E+01
RMM:   9    -0.212987514467E+03   -0.24449E+01   -0.23265E+01  3832   0.151E+01    0.157E+01
RMM:  10    -0.213268013489E+03   -0.28050E+00   -0.48452E+00  4207   0.614E+00    0.994E+00
RMM:  11    -0.213476548986E+03   -0.20854E+00   -0.23620E+00  4109   0.423E+00    0.550E+00
RMM:  12    -0.213661909440E+03   -0.18536E+00   -0.90166E-01  4324   0.227E+00    0.329E+00
RMM:  13    -0.213724849619E+03   -0.62940E-01   -0.29161E-01  3965   0.157E+00    0.177E+00
RMM:  14    -0.213734008526E+03   -0.91589E-02   -0.11135E-01  3875   0.934E-01    0.118E+00
RMM:  15    -0.213740851952E+03   -0.68434E-02   -0.63213E-02  3543   0.642E-01    0.615E-01
RMM:  16    -0.213744345169E+03   -0.34932E-02   -0.35131E-02  3100   0.492E-01    0.236E-01
RMM:  17    -0.213746679103E+03   -0.23339E-02   -0.24382E-02  2732   0.453E-01    0.157E-01
RMM:  18    -0.213747840873E+03   -0.11618E-02   -0.13549E-02  2387   0.372E-01    0.912E-02
RMM:  19    -0.213748921932E+03   -0.10811E-02   -0.10796E-02  2274   0.308E-01    0.691E-02
RMM:  20    -0.213749512009E+03   -0.59008E-03   -0.66073E-03  2231   0.307E-01
   1 F= -.21374951E+03 E0= -.21374951E+03  d E =0.000000E+00  mag=    12.0001
