 vasp.5.4.4.18Apr17-6-g9f103f2a35 (build Oct 03 2018 13:58:34) complex          
  
 executed on             LinuxIFC date 2019.06.04  02:06:03
 running on   40 total cores
 distrk:  each k-point on   20 cores,    2 groups
 distr:  one band on NCORES_PER_BAND=  10 cores,    2 groups


--------------------------------------------------------------------------------------------------------


 INCAR:
 POTCAR:    PAW_PBE La 06Sep2000                  
 POTCAR:    PAW_PBE Mn 06Sep2000                  
 POTCAR:    PAW_PBE Ni 02Aug2007                  
 POTCAR:    PAW_PBE O 08Apr2002                   

 ----------------------------------------------------------------------------- 
|                                                                             |
|           W    W    AA    RRRRR   N    N  II  N    N   GGGG   !!!           |
|           W    W   A  A   R    R  NN   N  II  NN   N  G    G  !!!           |
|           W    W  A    A  R    R  N N  N  II  N N  N  G       !!!           |
|           W WW W  AAAAAA  RRRRR   N  N N  II  N  N N  G  GGG   !            |
|           WW  WW  A    A  R   R   N   NN  II  N   NN  G    G                |
|           W    W  A    A  R    R  N    N  II  N    N   GGGG   !!!           |
|                                                                             |
|      You have enabled k-point parallelism (KPAR>1).                         |
|      This developmental code was originally  written by Paul Kent at ORNL,  |
|      and carefully double checked in Vienna.                                |
|      GW as well as linear response parallelism added by Martijn Marsman     |
|      and Georg Kresse.                                                      |
|      Carefully verify results versus KPAR=1.                                |
|      Report problems to Paul Kent and Vienna.                               |
|                                                                             |
 ----------------------------------------------------------------------------- 

 POTCAR:    PAW_PBE La 06Sep2000                  
   VRHFIN =La : [core=Kr4d]                                                     
   LEXCH  = PE                                                                  
   EATOM  =   865.9763 eV,   63.6475 Ry                                         
                                                                                
   TITEL  = PAW_PBE La 06Sep2000                                                
   LULTRA =        F    use ultrasoft PP ?                                      
   IUNSCR =        1    unscreen: 0-lin 1-nonlin 2-no                           
   RPACOR =    2.300    partial core radius                                     
   POMASS =  138.900; ZVAL   =   11.000    mass and valenz                      
   RCORE  =    2.800    outmost cutoff radius                                   
   RWIGS  =    2.900; RWIGS  =    1.535    wigner-seitz radius (au A)           
   ENMAX  =  219.292; ENMIN  =  164.469 eV                                      
   RCLOC  =    1.601    cutoff for local pot                                    
   LCOR   =        T    correct aug charges                                     
   LPAW   =        T    paw PP                                                  
   EAUG   =  583.575                                                            
   DEXC   =    0.000                                                            
   RMAX   =    2.853    core radius for proj-oper                               
   RAUG   =    1.300    factor for augmentation sphere                          
   RDEP   =    2.802    radius for radial grids                                 
   RDEPT  =    2.156    core radius for aug-charge                              
                                                                                
   Atomic configuration                                                         
   14 entries                                                                   
     n  l   j            E        occ.                                          
     1  0  0.50    -38741.0879   2.0000                                         
     2  0  0.50     -6166.6801   2.0000                                         
     2  1  1.50     -5526.1593   6.0000                                         
     3  0  0.50     -1319.0200   2.0000                                         
     3  1  1.50     -1114.5963   6.0000                                         
     3  2  2.50      -821.1793  10.0000                                         
     4  0  0.50      -266.3851   2.0000                                         
     4  1  1.50      -199.9276   6.0000                                         
     4  2  2.50      -103.8239  10.0000                                         
     5  0  0.50       -38.9172   2.0000                                         
     6  0  0.50        -3.6792   2.0000                                         
     5  1  1.50       -22.3948   6.0000                                         
     5  2  2.50        -3.0911   0.9999                                         
     4  3  2.50        -4.3603   0.0001                                         
   Description                                                                  
     l       E           TYP  RCUT    TYP  RCUT                                 
     0    -38.9171645     23  2.800                                             
     0     -3.6792381     23  2.800                                             
     1    -22.3948300     23  2.500                                             
     1     27.2116520     23  2.500                                             
     2     -3.0910934     23  2.500                                             
     2      1.0119135     23  2.500                                             
     3     -4.3602911     23  2.800                                             
     3     -5.7208737     23  2.800                                             
  local pseudopotential read in
  partial core-charges read in
  partial kinetic energy density read in
  atomic valenz-charges read in
  non local Contribution for L=           0  read in
    real space projection operators read in
  non local Contribution for L=           0  read in
    real space projection operators read in
  non local Contribution for L=           1  read in
    real space projection operators read in
  non local Contribution for L=           1  read in
    real space projection operators read in
  non local Contribution for L=           2  read in
    real space projection operators read in
  non local Contribution for L=           2  read in
    real space projection operators read in
  non local Contribution for L=           3  read in
    real space projection operators read in
  non local Contribution for L=           3  read in
    real space projection operators read in
    PAW grid and wavefunctions read in
 
   number of l-projection  operators is LMAX  =           8
   number of lm-projection operators is LMMAX =          32
 
 POTCAR:    PAW_PBE Mn 06Sep2000                  
   VRHFIN =Mn: d6 s1                                                            
   LEXCH  = PE                                                                  
   EATOM  =   416.7541 eV,   30.6306 Ry                                         
                                                                                
   TITEL  = PAW_PBE Mn 06Sep2000                                                
   LULTRA =        F    use ultrasoft PP ?                                      
   IUNSCR =        1    unscreen: 0-lin 1-nonlin 2-no                           
   RPACOR =    2.000    partial core radius                                     
   POMASS =   54.938; ZVAL   =    7.000    mass and valenz                      
   RCORE  =    2.300    outmost cutoff radius                                   
   RWIGS  =    2.500; RWIGS  =    1.323    wigner-seitz radius (au A)           
   ENMAX  =  269.864; ENMIN  =  202.398 eV                                      
   RCLOC  =    1.725    cutoff for local pot                                    
   LCOR   =        T    correct aug charges                                     
   LPAW   =        T    paw PP                                                  
   EAUG   =  500.711                                                            
   DEXC   =    0.000                                                            
   RMAX   =    2.343    core radius for proj-oper                               
   RAUG   =    1.300    factor for augmentation sphere                          
   RDEP   =    2.338    radius for radial grids                                 
   RDEPT  =    1.911    core radius for aug-charge                              
                                                                                
   Atomic configuration                                                         
    9 entries                                                                   
     n  l   j            E        occ.                                          
     1  0  0.50     -6424.8288   2.0000                                         
     2  0  0.50      -739.1154   2.0000                                         
     2  1  1.50      -625.3949   6.0000                                         
     3  0  0.50       -81.6100   2.0000                                         
     3  1  1.50       -50.4667   6.0000                                         
     3  2  2.50        -3.3745   6.0000                                         
     4  0  0.50        -4.1331   1.0000                                         
     4  1  0.50        -4.0817   0.0000                                         
     4  3  2.50        -1.3606   0.0000                                         
   Description                                                                  
     l       E           TYP  RCUT    TYP  RCUT                                 
     2     -3.3744664     23  2.300                                             
     2     -4.7350490     23  2.300                                             
     0     -4.1331408     23  2.300                                             
     0      7.6656614     23  2.300                                             
     1     -2.7211652     23  2.300                                             
     1     20.4087390     23  2.300                                             
  local pseudopotential read in
  partial core-charges read in
  partial kinetic energy density read in
  atomic valenz-charges read in
  non local Contribution for L=           2  read in
    real space projection operators read in
  non local Contribution for L=           2  read in
    real space projection operators read in
  non local Contribution for L=           0  read in
    real space projection operators read in
  non local Contribution for L=           0  read in
    real space projection operators read in
  non local Contribution for L=           1  read in
    real space projection operators read in
  non local Contribution for L=           1  read in
    real space projection operators read in
    PAW grid and wavefunctions read in
 
   number of l-projection  operators is LMAX  =           6
   number of lm-projection operators is LMMAX =          18
 
 POTCAR:    PAW_PBE Ni 02Aug2007                  
   VRHFIN =Ni:                                                                  
   LEXCH  = PE                                                                  
   EATOM  =  1077.6739 eV,   79.2068 Ry                                         
                                                                                
   TITEL  = PAW_PBE Ni 02Aug2007                                                
   LULTRA =        F    use ultrasoft PP ?                                      
   IUNSCR =        1    unscreen: 0-lin 1-nonlin 2-no                           
   RPACOR =    2.000    partial core radius                                     
   POMASS =   58.690; ZVAL   =   10.000    mass and valenz                      
   RCORE  =    2.300    outmost cutoff radius                                   
   RWIGS  =    2.430; RWIGS  =    1.286    wigner-seitz radius (au A)           
   ENMAX  =  269.532; ENMIN  =  202.149 eV                                      
   RCLOC  =    1.201    cutoff for local pot                                    
   LCOR   =        T    correct aug charges                                     
   LPAW   =        T    paw PP                                                  
   EAUG   =  544.565                                                            
   DEXC   =    0.000                                                            
   RMAX   =    2.357    core radius for proj-oper                               
   RAUG   =    1.300    factor for augmentation sphere                          
   RDEP   =    2.390    radius for radial grids                                 
   RDEPT  =    1.838    core radius for aug-charge                              
                                                                                
   Atomic configuration                                                         
    9 entries                                                                   
     n  l   j            E        occ.                                          
     1  0  0.50     -8206.4253   2.0000                                         
     2  0  0.50      -976.1748   2.0000                                         
     2  1  1.50      -839.0571   6.0000                                         
     3  0  0.50      -105.9991   2.0000                                         
     3  1  1.50       -66.4603   6.0000                                         
     3  2  2.50        -4.6458   9.0000                                         
     4  0  0.50        -4.4926   1.0000                                         
     4  1  1.50        -4.0817   0.0000                                         
     4  3  2.50        -1.3606   0.0000                                         
   Description                                                                  
     l       E           TYP  RCUT    TYP  RCUT                                 
     2     -4.6457903     23  2.300                                             
     2     -6.0063729     23  2.300                                             
     0     -4.4925590     23  2.300                                             
     0      5.0102601     23  2.300                                             
     1     -2.7211652     23  2.300                                             
     1     16.5183231     23  2.300                                             
  local pseudopotential read in
  partial core-charges read in
  partial kinetic energy density read in
  atomic valenz-charges read in
  non local Contribution for L=           2  read in
    real space projection operators read in
  non local Contribution for L=           2  read in
    real space projection operators read in
  non local Contribution for L=           0  read in
    real space projection operators read in
  non local Contribution for L=           0  read in
    real space projection operators read in
  non local Contribution for L=           1  read in
    real space projection operators read in
  non local Contribution for L=           1  read in
    real space projection operators read in
    PAW grid and wavefunctions read in
 
   number of l-projection  operators is LMAX  =           6
   number of lm-projection operators is LMMAX =          18
 
 POTCAR:    PAW_PBE O 08Apr2002                   
   VRHFIN =O: s2p4                                                              
   LEXCH  = PE                                                                  
   EATOM  =   432.3788 eV,   31.7789 Ry                                         
                                                                                
   TITEL  = PAW_PBE O 08Apr2002                                                 
   LULTRA =        F    use ultrasoft PP ?                                      
   IUNSCR =        1    unscreen: 0-lin 1-nonlin 2-no                           
   RPACOR =    1.200    partial core radius                                     
   POMASS =   16.000; ZVAL   =    6.000    mass and valenz                      
   RCORE  =    1.520    outmost cutoff radius                                   
   RWIGS  =    1.550; RWIGS  =    0.820    wigner-seitz radius (au A)           
   ENMAX  =  400.000; ENMIN  =  300.000 eV                                      
   ICORE  =        2    local potential                                         
   LCOR   =        T    correct aug charges                                     
   LPAW   =        T    paw PP                                                  
   EAUG   =  605.392                                                            
   DEXC   =    0.000                                                            
   RMAX   =    1.553    core radius for proj-oper                               
   RAUG   =    1.300    factor for augmentation sphere                          
   RDEP   =    1.550    radius for radial grids                                 
   RDEPT  =    1.329    core radius for aug-charge                              
                                                                                
   Atomic configuration                                                         
    4 entries                                                                   
     n  l   j            E        occ.                                          
     1  0  0.50      -514.6923   2.0000                                         
     2  0  0.50       -23.9615   2.0000                                         
     2  1  0.50        -9.0305   4.0000                                         
     3  2  1.50        -9.5241   0.0000                                         
   Description                                                                  
     l       E           TYP  RCUT    TYP  RCUT                                 
     0    -23.9615318     23  1.200                                             
     0     -9.5240782     23  1.200                                             
     1     -9.0304911     23  1.520                                             
     1      8.1634956     23  1.520                                             
     2     -9.5240782      7  1.500                                             
  local pseudopotential read in
  partial core-charges read in
  partial kinetic energy density read in
  kinetic energy density of atom read in
  atomic valenz-charges read in
  non local Contribution for L=           0  read in
    real space projection operators read in
  non local Contribution for L=           0  read in
    real space projection operators read in
  non local Contribution for L=           1  read in
    real space projection operators read in
  non local Contribution for L=           1  read in
    real space projection operators read in
    PAW grid and wavefunctions read in
 
   number of l-projection  operators is LMAX  =           4
   number of lm-projection operators is LMMAX =           8
 
 Optimization of the real space projectors (new method)

 maximal supplied QI-value         = 13.42
 optimisation between [QCUT,QGAM] = [ 11.67, 23.35] = [ 38.16,152.62] Ry 
 Optimized for a Real-space Cutoff    1.63 Angstroem

   l    n(q)    QCUT    max X(q) W(low)/X(q) W(high)/X(q)  e(spline) 
   0     11    11.673    13.882    0.27E-04    0.79E-05    0.11E-06
   0     11    11.673    12.184    0.39E-04    0.13E-04    0.19E-06
   1     11    11.673     4.523    0.73E-05    0.76E-05    0.12E-06
   1     11    11.673     4.424    0.87E-05    0.13E-04    0.19E-06
   2     10    11.673    52.481    0.65E-04    0.36E-04    0.18E-06
   2     10    11.673    38.501    0.61E-04    0.33E-04    0.17E-06
   3     10    11.673    65.631    0.17E-03    0.14E-03    0.37E-06
   3     10    11.673    56.854    0.17E-03    0.14E-03    0.37E-06
 Optimization of the real space projectors (new method)

 maximal supplied QI-value         = 16.25
 optimisation between [QCUT,QGAM] = [ 11.54, 23.24] = [ 37.28,151.24] Ry 
 Optimized for a Real-space Cutoff    1.53 Angstroem

   l    n(q)    QCUT    max X(q) W(low)/X(q) W(high)/X(q)  e(spline) 
   2     10    11.539   110.144    0.12E-03    0.13E-03    0.25E-06
   2     10    11.539   103.200    0.12E-03    0.13E-03    0.25E-06
   0     11    11.539    68.437    0.46E-04    0.21E-04    0.32E-06
   0     11    11.539    33.971    0.37E-04    0.19E-04    0.29E-06
   1     10    11.539    17.065    0.51E-04    0.22E-04    0.13E-06
   1     10    11.539    12.540    0.41E-04    0.18E-04    0.11E-06
 Optimization of the real space projectors (new method)

 maximal supplied QI-value         = 16.25
 optimisation between [QCUT,QGAM] = [ 11.54, 23.24] = [ 37.28,151.24] Ry 
 Optimized for a Real-space Cutoff    1.45 Angstroem

   l    n(q)    QCUT    max X(q) W(low)/X(q) W(high)/X(q)  e(spline) 
   2      9    11.539    60.317    0.19E-03    0.47E-04    0.16E-06
   2      9    11.539    55.921    0.19E-03    0.48E-04    0.16E-06
   0     10    11.539    51.690    0.80E-04    0.50E-04    0.24E-06
   0     10    11.539    30.015    0.73E-04    0.45E-04    0.22E-06
   1     10    11.539    18.849    0.87E-04    0.16E-03    0.71E-07
   1     10    11.539    14.624    0.73E-04    0.13E-03    0.64E-07
 Optimization of the real space projectors (new method)

 maximal supplied QI-value         = 24.76
 optimisation between [QCUT,QGAM] = [ 11.64, 23.27] = [ 37.91,151.63] Ry 
 Optimized for a Real-space Cutoff    1.14 Angstroem

   l    n(q)    QCUT    max X(q) W(low)/X(q) W(high)/X(q)  e(spline) 
   0      8    11.635    20.381    0.10E-03    0.33E-03    0.24E-06
   0      8    11.635    15.268    0.11E-03    0.35E-03    0.26E-06
   1      7    11.635     5.964    0.24E-03    0.31E-03    0.30E-06
   1      7    11.635     5.382    0.22E-03    0.25E-03    0.26E-06
  PAW_PBE La 06Sep2000                  :
 energy of atom  1       EATOM= -865.9763
 kinetic energy error for atom=    0.0009 (will be added to EATOM!!)
  PAW_PBE Mn 06Sep2000                  :
 energy of atom  2       EATOM= -416.7541
 kinetic energy error for atom=    0.0024 (will be added to EATOM!!)
  PAW_PBE Ni 02Aug2007                  :
 energy of atom  3       EATOM=-1077.6739
 kinetic energy error for atom=    0.0030 (will be added to EATOM!!)
  PAW_PBE O 08Apr2002                   :
 energy of atom  4       EATOM= -432.3788
 kinetic energy error for atom=    0.0208 (will be added to EATOM!!)
 
 
 POSCAR: SCEL6_6_1_1_0_5_5/5                     
  positions in direct lattice
  velocities in cartesian coordinates
 exchange correlation table for  LEXCH =        8
   RHO(1)=    0.500       N(1)  =     2000
   RHO(2)=  100.500       N(2)  =     4000
 


--------------------------------------------------------------------------------------------------------


 ion  position               nearest neighbor table
   1  0.667  0.333  0.842-  17 2.64  23 2.64  29 2.64  22 2.73  22 2.73  28 2.73  16 2.73  16 2.73
                            28 2.73  11 3.24   9 3.31   9 3.31   9 3.31
   2  0.333  0.667  0.679-  28 2.59  22 2.59  16 2.59  15 2.74  21 2.74  27 2.74  27 2.74  15 2.74
                            21 2.74   9 3.19  10 3.29  10 3.29  10 3.29   7 3.40   7 3.40   7 3.40
   3  0.000  0.000  0.500-  13 2.71  15 2.71  19 2.71  21 2.71  25 2.71  27 2.71  20 2.73  26 2.73
                            14 2.73  14 2.73  20 2.73  26 2.73   7 3.35   8 3.35   7 3.35   8 3.35
   4  0.667  0.333  0.321-  30 2.59  24 2.59  18 2.59  19 2.74  13 2.74  25 2.74  25 2.74  13 2.74
                            19 2.74  11 3.19  12 3.29  12 3.29  12 3.29   8 3.40   8 3.40   8 3.40
   5  0.333  0.667  0.158-  17 2.64  23 2.64  29 2.64  18 2.73  30 2.73  24 2.73  18 2.73  24 2.73
                            30 2.73   9 3.24  11 3.31  11 3.31  11 3.31
   6  0.000  0.000  0.000-  17 2.73  23 2.73  29 2.73  17 2.73  23 2.73  29 2.73  18 2.75  22 2.75
                            16 2.75  24 2.75  30 2.75  28 2.75   9 3.35  11 3.35   9 3.35   9 3.35
   7  0.667  0.333  0.584-  27 1.88  21 1.88  15 1.88  14 1.94  20 1.94  26 1.94   3 3.35   3 3.35
                             3 3.35   2 3.40   2 3.40   2 3.40
   8  0.333  0.667  0.416-  25 1.88  19 1.88  13 1.88  20 1.94  14 1.94  26 1.94   3 3.35   3 3.35
                             3 3.35   4 3.40   4 3.40   4 3.40
   9  0.333  0.667  0.916-  28 1.93  22 1.93  16 1.93  23 1.94  17 1.94  29 1.94   2 3.19   5 3.24
                             1 3.31   1 3.31   1 3.31   6 3.35   6 3.35   6 3.35
  10  0.000  0.000  0.750-  16 1.94  22 1.94  28 1.94  15 1.98  21 1.98  27 1.98   2 3.29   2 3.29
                             2 3.29   3 3.35   6 3.36
  11  0.667  0.333  0.084-  30 1.93  24 1.93  18 1.93  17 1.94  23 1.94  29 1.94   4 3.19   1 3.24
                             5 3.31   5 3.31   5 3.31   6 3.35   6 3.35   6 3.35
  12  0.000  0.000  0.250-  18 1.94  24 1.94  30 1.94  13 1.98  19 1.98  25 1.98   4 3.29   4 3.29
                             4 3.29   3 3.35   6 3.36
  13  0.662  0.831  0.337-   8 1.88  12 1.98   3 2.71   4 2.74   4 2.74
  14  0.000  0.500  0.500-   7 1.94   8 1.94   3 2.73   3 2.73
  15  0.338  0.169  0.663-   7 1.88  10 1.98   3 2.71   2 2.74   2 2.74
  16  0.664  0.832  0.833-   9 1.93  10 1.94   2 2.59   1 2.73   1 2.73   6 2.75
  17  0.000  0.500  0.000-   9 1.94  11 1.94   1 2.64   5 2.64   6 2.73   6 2.73
  18  0.336  0.168  0.167-  11 1.93  12 1.94   4 2.59   5 2.73   5 2.73   6 2.75
  19  0.169  0.338  0.337-   8 1.88  12 1.98   3 2.71   4 2.74   4 2.74
  20  0.500  0.000  0.500-   7 1.94   8 1.94   3 2.73   3 2.73
  21  0.831  0.662  0.663-   7 1.88  10 1.98   3 2.71   2 2.74   2 2.74
  22  0.168  0.336  0.833-   9 1.93  10 1.94   2 2.59   1 2.73   1 2.73   6 2.75
  23  0.500  0.000  0.000-   9 1.94  11 1.94   1 2.64   5 2.64   6 2.73   6 2.73
  24  0.832  0.664  0.167-  11 1.93  12 1.94   4 2.59   5 2.73   5 2.73   6 2.75
  25  0.169  0.831  0.337-   8 1.88  12 1.98   3 2.71   4 2.74   4 2.74
  26  0.500  0.500  0.500-   7 1.94   8 1.94   3 2.73   3 2.73
  27  0.831  0.169  0.663-   7 1.88  10 1.98   3 2.71   2 2.74   2 2.74
  28  0.168  0.832  0.833-   9 1.93  10 1.94   2 2.59   1 2.73   1 2.73   6 2.75
  29  0.500  0.500  0.000-   9 1.94  11 1.94   1 2.64   5 2.64   6 2.73   6 2.73
  30  0.832  0.168  0.167-  11 1.93  12 1.94   4 2.59   5 2.73   5 2.73   6 2.75
 
  LATTYP: Found a hexagonal cell.
 ALAT       =     5.4633128049
 C/A-ratio  =     2.4577538553
  
  Lattice vectors:
  
 A1 = (   3.8631455321,   0.0000000000,  -3.8631455321)
 A2 = (  -3.8631455321,   3.8631455321,   0.0000000000)
 A3 = (   7.7523581008,   7.7523581008,   7.7523581008)


Analysis of symmetry for initial positions (statically):
=====================================================================
 Subroutine PRICEL returns:
 Original cell was already a primitive cell.
 

 Routine SETGRP: Setting up the symmetry group for a 
 hexagonal supercell.


 Subroutine GETGRP returns: Found 12 space group operations
 (whereof 12 operations were pure point group operations)
 out of a pool of 24 trial point group operations.


The static configuration has the point symmetry D_3d.


Analysis of symmetry for dynamics (positions and initial velocities):
=====================================================================
 Subroutine PRICEL returns:
 Original cell was already a primitive cell.
 

 Routine SETGRP: Setting up the symmetry group for a 
 hexagonal supercell.


 Subroutine GETGRP returns: Found 12 space group operations
 (whereof 12 operations were pure point group operations)
 out of a pool of 24 trial point group operations.


The dynamic configuration has the point symmetry D_3d.


Analysis of structural, dynamic, and magnetic symmetry:
=====================================================================
 Subroutine PRICEL returns:
 Original cell was already a primitive cell.
 

 Routine SETGRP: Setting up the symmetry group for a 
 hexagonal supercell.


 Subroutine GETGRP returns: Found 12 space group operations
 (whereof 12 operations were pure point group operations)
 out of a pool of 24 trial point group operations.


The magnetic configuration has the point symmetry D_3d.


 Subroutine INISYM returns: Found 12 space group operations
 (whereof 12 operations are pure point group operations),
 and found     1 'primitive' translations

 
 
 KPOINTS: Automatic mesh                          

Automatic generation of k-mesh.
 generate k-points for:    4    4    1
Space group operators:
 irot       det(A)        alpha          n_x          n_y          n_z        tau_x        tau_y        tau_z
    1     1.000000     0.000000     1.000000     0.000000     0.000000     0.000000     0.000000     0.000000
    2    -1.000000     0.000000     1.000000     0.000000     0.000000     0.000000     0.000000     0.000000
    3     1.000000   120.000000    -0.577350    -0.577350    -0.577350     0.000000     0.000000     0.000000
    4    -1.000000   120.000000    -0.577350    -0.577350    -0.577350     0.000000     0.000000     0.000000
    5     1.000000   120.000000     0.577350     0.577350     0.577350     0.000000     0.000000     0.000000
    6    -1.000000   120.000000     0.577350     0.577350     0.577350     0.000000     0.000000     0.000000
    7     1.000000   180.000000     0.707107     0.000000    -0.707107     0.000000     0.000000     0.000000
    8    -1.000000   180.000000     0.707107     0.000000    -0.707107     0.000000     0.000000     0.000000
    9     1.000000   180.000000     0.707107    -0.707107     0.000000     0.000000     0.000000     0.000000
   10    -1.000000   180.000000     0.707107    -0.707107     0.000000     0.000000     0.000000     0.000000
   11     1.000000   180.000000     0.000000    -0.707107     0.707107     0.000000     0.000000     0.000000
   12    -1.000000   180.000000     0.000000    -0.707107     0.707107     0.000000     0.000000     0.000000
 
 Subroutine IBZKPT returns following result:
 ===========================================
 
 Found      4 irreducible k-points:
 
 Following reciprocal coordinates:
            Coordinates               Weight
  0.000000  0.000000  0.000000      1.000000
  0.250000  0.000000  0.000000      6.000000
  0.500000  0.000000  0.000000      3.000000
  0.250000  0.250000  0.000000      6.000000
 
 Following cartesian coordinates:
            Coordinates               Weight
  0.000000  0.000000  0.000000      1.000000
  0.021571  0.021571 -0.043143      6.000000
  0.043143  0.043143 -0.086285      3.000000
  0.000000  0.064714 -0.064714      6.000000
 
 TETIRR: Found     10 inequivalent tetrahedra from       96


--------------------------------------------------------------------------------------------------------




 Dimension of arrays:
   k-points           NKPTS =      4   k-points in BZ     NKDIM =      4   number of bands    NBANDS=    146
   number of dos      NEDOS =    301   number of ions     NIONS =     30
   non local maximal  LDIM  =      8   non local SUM 2l+1 LMDIM =     32
   total plane-waves  NPLWV = 176400
   max r-space proj   IRMAX =   9222   max aug-charges    IRDMAX=  26753
   dimension x,y,z NGX =    42 NGY =   42 NGZ =  100
   dimension x,y,z NGXF=    84 NGYF=   84 NGZF=  200
   support grid    NGXF=    84 NGYF=   84 NGZF=  200
   ions per type =               6   2   4  18
   NGX,Y,Z   is equivalent  to a cutoff of  12.78, 12.78, 12.38 a.u.
   NGXF,Y,Z  is equivalent  to a cutoff of  25.56, 25.56, 24.76 a.u.

 SYSTEM =  final                                   
 POSCAR =  SCEL6_6_1_1_0_5_5/5                     

 Startparameter for this run:
   NWRITE =      2    write-flag & timer
   PREC   = accura    normal or accurate (medium, high low for compatibility)
   ISTART =      0    job   : 0-new  1-cont  2-samecut
   ICHARG =      1    charge: 1-file 2-atom 10-const
   ISPIN  =      2    spin polarized calculation?
   LNONCOLLINEAR =      F non collinear calculations
   LSORBIT =      F    spin-orbit coupling
   INIWAV =      1    electr: 0-lowe 1-rand  2-diag
   LASPH  =      F    aspherical Exc in radial PAW
   METAGGA=      F    non-selfconsistent MetaGGA calc.

 Electronic Relaxation 1
   ENCUT  =  520.0 eV  38.22 Ry    6.18 a.u.  10.16 10.16 24.97*2*pi/ulx,y,z
   ENINI  =  520.0     initial cutoff
   ENAUG  =  605.4 eV  augmentation charge cutoff
   NELM   =    100;   NELMIN=  2; NELMDL= -5     # of ELM steps 
   EDIFF  = 0.1E-02   stopping-criterion for ELM
   LREAL  =      T    real-space projection
   NLSPLINE    = F    spline interpolate recip. space projectors
   LCOMPAT=      F    compatible to vasp.4.4
   GGA_COMPAT  = T    GGA compatible to vasp.4.4-vasp.4.6
   LMAXPAW     = -100 max onsite density
   LMAXMIX     =    6 max onsite mixed and CHGCAR
   VOSKOWN=      0    Vosko Wilk Nusair interpolation
   ROPT   =   -0.00025  -0.00025  -0.00025  -0.00025
 Ionic relaxation
   EDIFFG = 0.1E-01   stopping-criterion for IOM
   NSW    =      0    number of steps for IOM
   NBLOCK =      1;   KBLOCK =      1    inner block; outer block 
   IBRION =     -1    ionic relax: 0-MD 1-quasi-New 2-CG
   NFREE  =      0    steps in history (QN), initial steepest desc. (CG)
   ISIF   =      2    stress and relaxation
   IWAVPR =     10    prediction:  0-non 1-charg 2-wave 3-comb
   ISYM   =      2    0-nonsym 1-usesym 2-fastsym
   LCORR  =      T    Harris-Foulkes like correction to forces

   POTIM  = 0.5000    time-step for ionic-motion
   TEIN   =    0.0    initial temperature
   TEBEG  =    0.0;   TEEND  =   0.0 temperature during run
   SMASS  =  -3.00    Nose mass-parameter (am)
   estimated Nose-frequenzy (Omega)   =  0.10E-29 period in steps =****** mass=  -0.682E-27a.u.
   SCALEE = 1.0000    scale energy and forces
   NPACO  =    256;   APACO  = 16.0  distance and # of slots for P.C.
   PSTRESS=    0.0 pullay stress

  Mass of Ions in am
   POMASS = 138.90 54.94 58.69 16.00
  Ionic Valenz
   ZVAL   =  11.00  7.00 10.00  6.00
  Atomic Wigner-Seitz radii
   RWIGS  =  -1.00 -1.00 -1.00 -1.00
  virtual crystal weights 
   VCA    =   1.00  1.00  1.00  1.00
   NELECT =     228.0000    total number of electrons
   NUPDOWN=      -1.0000    fix difference up-down

 DOS related values:
   EMIN   =  10.00;   EMAX   =-10.00  energy-range for DOS
   EFERMI =   0.00
   ISMEAR =    -5;   SIGMA  =   0.05  broadening in eV -4-tet -1-fermi 0-gaus

 Electronic relaxation 2 (details)
   IALGO  =     68    algorithm
   LDIAG  =      T    sub-space diagonalisation (order eigenvalues)
   LSUBROT=      F    optimize rotation matrix (better conditioning)
   TURBO    =      0    0=normal 1=particle mesh
   IRESTART =      0    0=no restart 2=restart with 2 vectors
   NREBOOT  =      0    no. of reboots
   NMIN     =      0    reboot dimension
   EREF     =   0.00    reference energy to select bands
   IMIX   =      4    mixing-type and parameters
     AMIX     =   0.40;   BMIX     =  1.00
     AMIX_MAG =   1.60;   BMIX_MAG =  1.00
     AMIN     =   0.10
     WC   =   100.;   INIMIX=   1;  MIXPRE=   1;  MAXMIX= -45

 Intra band minimization:
   WEIMIN = 0.0000     energy-eigenvalue tresh-hold
   EBREAK =  0.17E-05  absolut break condition
   DEPER  =   0.30     relativ break condition  

   TIME   =   0.40     timestep for ELM

  volume/ion in A,a.u.               =      11.57        78.08
  Fermi-wavevector in a.u.,A,eV,Ry     =   1.423117  2.689302 27.555375  2.025263
  Thomas-Fermi vector in A             =   2.543749
 
 Write flags
   LWAVE        =      F    write WAVECAR
   LDOWNSAMPLE  =      F    k-point downsampling of WAVECAR
   LCHARG       =      T    write CHGCAR
   LVTOT        =      F    write LOCPOT, total local potential
   LVHAR        =      F    write LOCPOT, Hartree potential only
   LELF         =      F    write electronic localiz. function (ELF)
   LORBIT       =     11    0 simple, 1 ext, 2 COOP (PROOUT), +10 PAW based schemes


 Dipole corrections
   LMONO  =      F    monopole corrections only (constant potential shift)
   LDIPOL =      F    correct potential (dipole corrections)
   IDIPOL =      0    1-x, 2-y, 3-z, 4-all directions 
   EPSILON=  1.0000000 bulk dielectric constant

 LDA+U is selected, type is set to LDAUTYPE =  2
   angular momentum for each species LDAUL =     0    2    2    0
   U (eV)           for each species LDAUU =   0.0  3.9  6.2  0.0
   J (eV)           for each species LDAUJ =   0.0  0.0  0.0  0.0
 Exchange correlation treatment:
   GGA     =    --    GGA type
   LEXCH   =     8    internal setting for exchange type
   VOSKOWN=      0    Vosko Wilk Nusair interpolation
   LHFCALC =     F    Hartree Fock is set to
   LHFONE  =     F    Hartree Fock one center treatment
   AEXX    =    0.0000 exact exchange contribution

 Linear response parameters
   LEPSILON=     F    determine dielectric tensor
   LRPA    =     F    only Hartree local field effects (RPA)
   LNABLA  =     F    use nabla operator in PAW spheres
   LVEL    =     F    velocity operator in full k-point grid
   LINTERFAST=   F  fast interpolation
   KINTER  =     0    interpolate to denser k-point grid
   CSHIFT  =0.1000    complex shift for real part using Kramers Kronig
   OMEGAMAX=  -1.0    maximum frequency
   DEG_THRESHOLD= 0.2000000E-02 threshold for treating states as degnerate
   RTIME   =   -0.100 relaxation time in fs
  (WPLASMAI=    0.000 imaginary part of plasma frequency in eV, 0.658/RTIME)
   DFIELD  = 0.0000000 0.0000000 0.0000000 field for delta impulse in time
 
 Orbital magnetization related:
   ORBITALMAG=     F  switch on orbital magnetization
   LCHIMAG   =     F  perturbation theory with respect to B field
   DQ        =  0.001000  dq finite difference perturbation B field
   LLRAUG    =     F  two centre corrections for induced B field



--------------------------------------------------------------------------------------------------------


 Static calculation
 charge density and potential will be updated during run
 spin polarized calculation
 RMM-DIIS sequential band-by-band and
  variant of blocked Davidson during initial phase
 perform sub-space diagonalisation
    before iterative eigenvector-optimisation
 modified Broyden-mixing scheme, WC =      100.0
 initial mixing is a Kerker type mixing with AMIX =  0.4000 and BMIX =      1.0000
 Hartree-type preconditioning will be used
 using additional bands           32
 real space projection scheme for non local part
 use partial core corrections
 calculate Harris-corrections to forces 
   (improved forces if not selfconsistent)
 use gradient corrections 
 use of overlap-Matrix (Vanderbilt PP)
 Fermi weights with tetrahedron method with Bloechl corrections


--------------------------------------------------------------------------------------------------------


  energy-cutoff  :      520.00
  volume of cell :      347.09
      direct lattice vectors                 reciprocal lattice vectors
     3.863145532  0.000000000 -3.863145532     0.086285471  0.086285471 -0.172570943
    -3.863145532  3.863145532  0.000000000    -0.086285471  0.172570943 -0.086285471
     7.752358101  7.752358101  7.752358101     0.042997670  0.042997670  0.042997670

  length of vectors
     5.463312805  5.463312805 13.427478109     0.211355377  0.211355377  0.074474149


 
 k-points in units of 2pi/SCALE and weight: Automatic mesh                          
   0.00000000  0.00000000  0.00000000       0.062
   0.02157137  0.02157137 -0.04314274       0.375
   0.04314274  0.04314274 -0.08628547       0.188
   0.00000000  0.06471410 -0.06471410       0.375
 
 k-points in reciprocal lattice and weights: Automatic mesh                          
   0.00000000  0.00000000  0.00000000       0.062
   0.25000000  0.00000000  0.00000000       0.375
   0.50000000  0.00000000  0.00000000       0.188
   0.25000000  0.25000000  0.00000000       0.375
 
 position of ions in fractional coordinates (direct lattice) 
   0.66666670  0.33333330  0.84243347
   0.33333330  0.66666670  0.67912044
   0.00000000  0.00000000  0.50000000
   0.66666670  0.33333330  0.32087956
   0.33333330  0.66666670  0.15756653
   0.00000000  0.00000000  0.00000000
   0.66666670  0.33333330  0.58393196
   0.33333330  0.66666670  0.41606804
   0.33333330  0.66666670  0.91643618
   0.00000000  0.00000000  0.74965560
   0.66666670  0.33333330  0.08356382
   0.00000000  0.00000000  0.25034440
   0.66156767  0.83078379  0.33722185
   0.00000000  0.50000000  0.50000000
   0.33843233  0.16921621  0.66277815
   0.66383816  0.83191903  0.83269067
   0.00000000  0.50000000  0.00000000
   0.33616184  0.16808097  0.16730933
   0.16921621  0.33843233  0.33722185
   0.50000000  0.00000000  0.50000000
   0.83078379  0.66156767  0.66277815
   0.16808097  0.33616184  0.83269067
   0.50000000  0.00000000  0.00000000
   0.83191903  0.66383816  0.16730933
   0.16921621  0.83078379  0.33722185
   0.50000000  0.50000000  0.50000000
   0.83078379  0.16921621  0.66277815
   0.16808097  0.83191903  0.83269067
   0.50000000  0.50000000  0.00000000
   0.83191903  0.16808097  0.16730933
 
 position of ions in cartesian coordinates  (Angst):
   7.81856137  7.81856098  3.95541545
   3.97706944  7.84021536  3.97706983
   3.87617905  3.87617905  3.87617905
   3.77528866  3.77528827 -0.08785726
  -0.06620327  3.79694265 -0.06620288
   0.00000000  0.00000000  0.00000000
   5.81456511  5.81456472  1.95141919
   1.93779299  5.80093891  1.93779338
   5.81682603  9.67997194  5.81682641
   5.81159863  5.81159863  5.81159863
   1.93553208  1.93553169 -1.92761384
   1.94075947  1.94075947  1.94075947
   1.96055808  5.82370322  0.05853237
   1.94460628  5.80775182  3.87617905
   5.79180002  5.79180041  3.83068020
   5.80599538  9.66914052  3.89081281
  -1.93157277  1.93157277  0.00000000
   1.94636272  1.94636311 -0.00160024
   1.96055808  3.92167790  1.96055769
   5.80775182  3.87617905  1.94460628
   5.79180002  7.69382573  1.92865488
   5.80599538  7.75395835  5.80599499
   1.93157277  0.00000000 -1.93157277
   1.94636272  3.86154529 -1.91678242
   0.05853275  5.82370322  1.96055769
   3.87617905  5.80775182  1.94460628
   7.69382535  5.79180041  1.92865488
   3.89081320  9.66914052  5.80599499
   0.00000000  1.93157277 -1.93157277
   3.86154490  1.94636311 -1.91678242
 


--------------------------------------------------------------------------------------------------------


 k-point  1 :   0.0000 0.0000 0.0000  plane waves:    9343
 k-point  2 :   0.2500 0.0000 0.0000  plane waves:    9334
 k-point  3 :   0.5000 0.0000 0.0000  plane waves:    9360
 k-point  4 :   0.2500 0.2500 0.0000  plane waves:    9354

 maximum and minimum number of plane-waves per node :       942      924

 maximum number of plane-waves:      9360
 maximum index in each direction: 
   IXMAX=   10   IYMAX=   10   IZMAX=   24
   IXMIN=  -10   IYMIN=  -10   IZMIN=  -24


 real space projection operators:
  total allocation   :      22418.78 KBytes
  max/ min on nodes  :       2587.98       2143.61


 parallel 3D FFT for wavefunctions:
    minimum data exchange during FFTs selected (reduces bandwidth)
 parallel 3D FFT for charge:
    minimum data exchange during FFTs selected (reduces bandwidth)


 total amount of memory used by VASP MPI-rank0    60667. kBytes
=======================================================================

   base      :      30000. kBytes
   nonlr-proj:       7887. kBytes
   fftplans  :       3363. kBytes
   grid      :       9817. kBytes
   one-center:        294. kBytes
   wavefun   :       9306. kBytes
 
     INWAV:  cpu time    0.0000: real time    0.0001
 Broyden mixing: mesh for mixing (old mesh)
   NGX = 21   NGY = 21   NGZ = 49
  (NGX  = 84   NGY  = 84   NGZ  =200)
  gives a total of  21609 points

 initial charge density was supplied:
 charge density of overlapping atoms calculated
 number of electron     228.0000000 magnetization      20.0000000
 keeping initial charge density in first step


--------------------------------------------------------------------------------------------------------


 Maximum index for non-local projection operator         1300
 Maximum index for augmentation-charges         1905 (set IRDMAX)


--------------------------------------------------------------------------------------------------------


 First call to EWALD:  gamma=   0.252
 Maximum number of real-space cells 4x 4x 2
 Maximum number of reciprocal cells 2x 2x 5

    FEWALD:  cpu time    0.0018: real time    0.0021


--------------------------------------- Iteration      1(   1)  ---------------------------------------


    POTLOK:  cpu time    0.1016: real time    0.1057
    SETDIJ:  cpu time    0.0166: real time    0.0167
atom =   1  type =  1  l = 0
 
 onsite density matrix
 
spin component  1
 
  1.0989
 
spin component  2
 
  1.0989
 
 occupancies and eigenvectors
 
  o =  1.0989  v =  1.0000  0.0000      0.0000  0.0000
  o =  1.0989  v =  0.0000  1.0000      0.0000  0.0000
atom =   2  type =  1  l = 0
 
 onsite density matrix
 
spin component  1
 
  1.0989
 
spin component  2
 
  1.0989
 
 occupancies and eigenvectors
 
  o =  1.0989  v =  1.0000  0.0000      0.0000  0.0000
  o =  1.0989  v =  0.0000  1.0000      0.0000  0.0000
atom =   3  type =  1  l = 0
 
 onsite density matrix
 
spin component  1
 
  1.0989
 
spin component  2
 
  1.0989
 
 occupancies and eigenvectors
 
  o =  1.0989  v =  1.0000  0.0000      0.0000  0.0000
  o =  1.0989  v =  0.0000  1.0000      0.0000  0.0000
atom =   4  type =  1  l = 0
 
 onsite density matrix
 
spin component  1
 
  1.0989
 
spin component  2
 
  1.0989
 
 occupancies and eigenvectors
 
  o =  1.0989  v =  1.0000  0.0000      0.0000  0.0000
  o =  1.0989  v =  0.0000  1.0000      0.0000  0.0000
atom =   5  type =  1  l = 0
 
 onsite density matrix
 
spin component  1
 
  1.0989
 
spin component  2
 
  1.0989
 
 occupancies and eigenvectors
 
  o =  1.0989  v =  1.0000  0.0000      0.0000  0.0000
  o =  1.0989  v =  0.0000  1.0000      0.0000  0.0000
atom =   6  type =  1  l = 0
 
 onsite density matrix
 
spin component  1
 
  1.0989
 
spin component  2
 
  1.0989
 
 occupancies and eigenvectors
 
  o =  1.0989  v =  1.0000  0.0000      0.0000  0.0000
  o =  1.0989  v =  0.0000  1.0000      0.0000  0.0000
atom =   7  type =  2  l = 2
 
 onsite density matrix
 
spin component  1
 
  0.8272  0.0000  0.0000  0.0000  0.0000
  0.0000  0.8272  0.0000  0.0000  0.0000
  0.0000  0.0000  0.8272  0.0000  0.0000
  0.0000  0.0000  0.0000  0.8272  0.0000
  0.0000  0.0000  0.0000  0.0000  0.8272
 
spin component  2
 
  0.2256  0.0000  0.0000  0.0000  0.0000
  0.0000  0.2256  0.0000  0.0000  0.0000
  0.0000  0.0000  0.2256  0.0000  0.0000
  0.0000  0.0000  0.0000  0.2256  0.0000
  0.0000  0.0000  0.0000  0.0000  0.2256
 
 occupancies and eigenvectors
 
  o =  0.2256  v =  0.0000  0.0000  0.0000  0.0000  0.0000  0.0000  0.0000  1.0000  0.0000  0.0000      0.0000  0.0000  0.0000  0.0000  0.0000  0.0000  0.0000  0.0000  0.0000  0.0000
  o =  0.2256  v =  0.0000  0.0000  0.0000  0.0000  0.0000  1.0000  0.0000  0.0000  0.0000  0.0000      0.0000  0.0000  0.0000  0.0000  0.0000  0.0000  0.0000  0.0000  0.0000  0.0000
  o =  0.2256  v =  0.0000  0.0000  0.0000  0.0000  0.0000  0.0000  1.0000  0.0000  0.0000  0.0000      0.0000  0.0000  0.0000  0.0000  0.0000  0.0000  0.0000  0.0000  0.0000  0.0000
  o =  0.2256  v =  0.0000  0.0000  0.0000  0.0000  0.0000  0.0000  0.0000  0.0000  1.0000  0.0000      0.0000  0.0000  0.0000  0.0000  0.0000  0.0000  0.0000  0.0000  0.0000  0.0000
  o =  0.2256  v =  0.0000  0.0000  0.0000  0.0000  0.0000  0.0000  0.0000  0.0000  0.0000  1.0000      0.0000  0.0000  0.0000  0.0000  0.0000  0.0000  0.0000  0.0000  0.0000  0.0000
  o =  0.8272  v =  0.0000  1.0000  0.0000  0.0000  0.0000  0.0000  0.0000  0.0000  0.0000  0.0000      0.0000  0.0000  0.0000  0.0000  0.0000  0.0000  0.0000  0.0000  0.0000  0.0000
  o =  0.8272  v =  0.0000  0.0000  1.0000  0.0000  0.0000  0.0000  0.0000  0.0000  0.0000  0.0000      0.0000  0.0000  0.0000  0.0000  0.0000  0.0000  0.0000  0.0000  0.0000  0.0000
  o =  0.8272  v =  1.0000  0.0000  0.0000  0.0000  0.0000  0.0000  0.0000  0.0000  0.0000  0.0000      0.0000  0.0000  0.0000  0.0000  0.0000  0.0000  0.0000  0.0000  0.0000  0.0000
  o =  0.8272  v =  0.0000  0.0000  0.0000  1.0000  0.0000  0.0000  0.0000  0.0000  0.0000  0.0000      0.0000  0.0000  0.0000  0.0000  0.0000  0.0000  0.0000  0.0000  0.0000  0.0000
  o =  0.8272  v =  0.0000  0.0000  0.0000  0.0000  1.0000  0.0000  0.0000  0.0000  0.0000  0.0000      0.0000  0.0000  0.0000  0.0000  0.0000  0.0000  0.0000  0.0000  0.0000  0.0000
atom =   8  type =  2  l = 2
 
 onsite density matrix
 
spin component  1
 
  0.8272  0.0000  0.0000  0.0000  0.0000
  0.0000  0.8272  0.0000  0.0000  0.0000
  0.0000  0.0000  0.8272  0.0000  0.0000
  0.0000  0.0000  0.0000  0.8272  0.0000
  0.0000  0.0000  0.0000  0.0000  0.8272
 
spin component  2
 
  0.2256  0.0000  0.0000  0.0000  0.0000
  0.0000  0.2256  0.0000  0.0000  0.0000
  0.0000  0.0000  0.2256  0.0000  0.0000
  0.0000  0.0000  0.0000  0.2256  0.0000
  0.0000  0.0000  0.0000  0.0000  0.2256
 
 occupancies and eigenvectors
 
  o =  0.2256  v =  0.0000  0.0000  0.0000  0.0000  0.0000  0.0000  0.0000  1.0000  0.0000  0.0000      0.0000  0.0000  0.0000  0.0000  0.0000  0.0000  0.0000  0.0000  0.0000  0.0000
  o =  0.2256  v =  0.0000  0.0000  0.0000  0.0000  0.0000  1.0000  0.0000  0.0000  0.0000  0.0000      0.0000  0.0000  0.0000  0.0000  0.0000  0.0000  0.0000  0.0000  0.0000  0.0000
  o =  0.2256  v =  0.0000  0.0000  0.0000  0.0000  0.0000  0.0000  1.0000  0.0000  0.0000  0.0000      0.0000  0.0000  0.0000  0.0000  0.0000  0.0000  0.0000  0.0000  0.0000  0.0000
  o =  0.2256  v =  0.0000  0.0000  0.0000  0.0000  0.0000  0.0000  0.0000  0.0000  1.0000  0.0000      0.0000  0.0000  0.0000  0.0000  0.0000  0.0000  0.0000  0.0000  0.0000  0.0000
  o =  0.2256  v =  0.0000  0.0000  0.0000  0.0000  0.0000  0.0000  0.0000  0.0000  0.0000  1.0000      0.0000  0.0000  0.0000  0.0000  0.0000  0.0000  0.0000  0.0000  0.0000  0.0000
  o =  0.8272  v =  0.0000  1.0000  0.0000  0.0000  0.0000  0.0000  0.0000  0.0000  0.0000  0.0000      0.0000  0.0000  0.0000  0.0000  0.0000  0.0000  0.0000  0.0000  0.0000  0.0000
  o =  0.8272  v =  0.0000  0.0000  1.0000  0.0000  0.0000  0.0000  0.0000  0.0000  0.0000  0.0000      0.0000  0.0000  0.0000  0.0000  0.0000  0.0000  0.0000  0.0000  0.0000  0.0000
  o =  0.8272  v =  1.0000  0.0000  0.0000  0.0000  0.0000  0.0000  0.0000  0.0000  0.0000  0.0000      0.0000  0.0000  0.0000  0.0000  0.0000  0.0000  0.0000  0.0000  0.0000  0.0000
  o =  0.8272  v =  0.0000  0.0000  0.0000  1.0000  0.0000  0.0000  0.0000  0.0000  0.0000  0.0000      0.0000  0.0000  0.0000  0.0000  0.0000  0.0000  0.0000  0.0000  0.0000  0.0000
  o =  0.8272  v =  0.0000  0.0000  0.0000  0.0000  1.0000  0.0000  0.0000  0.0000  0.0000  0.0000      0.0000  0.0000  0.0000  0.0000  0.0000  0.0000  0.0000  0.0000  0.0000  0.0000
atom =   9  type =  3  l = 2
 
 onsite density matrix
 
spin component  1
 
  1.1008  0.0000  0.0000  0.0000  0.0000
  0.0000  1.1008  0.0000  0.0000  0.0000
  0.0000  0.0000  1.1008  0.0000  0.0000
  0.0000  0.0000  0.0000  1.1008  0.0000
  0.0000  0.0000  0.0000  0.0000  1.1008
 
spin component  2
 
  0.5927  0.0000  0.0000  0.0000  0.0000
  0.0000  0.5927  0.0000  0.0000  0.0000
  0.0000  0.0000  0.5927  0.0000  0.0000
  0.0000  0.0000  0.0000  0.5927  0.0000
  0.0000  0.0000  0.0000  0.0000  0.5927
 
 occupancies and eigenvectors
 
  o =  0.5927  v =  0.0000  0.0000  0.0000  0.0000  0.0000  1.0000  0.0000  0.0000  0.0000  0.0000      0.0000  0.0000  0.0000  0.0000  0.0000  0.0000  0.0000  0.0000  0.0000  0.0000
  o =  0.5927  v =  0.0000  0.0000  0.0000  0.0000  0.0000  0.0000  1.0000  0.0000  0.0000  0.0000      0.0000  0.0000  0.0000  0.0000  0.0000  0.0000  0.0000  0.0000  0.0000  0.0000
  o =  0.5927  v =  0.0000  0.0000  0.0000  0.0000  0.0000  0.0000  0.0000  1.0000  0.0000  0.0000      0.0000  0.0000  0.0000  0.0000  0.0000  0.0000  0.0000  0.0000  0.0000  0.0000
  o =  0.5927  v =  0.0000  0.0000  0.0000  0.0000  0.0000  0.0000  0.0000  0.0000  1.0000  0.0000      0.0000  0.0000  0.0000  0.0000  0.0000  0.0000  0.0000  0.0000  0.0000  0.0000
  o =  0.5927  v =  0.0000  0.0000  0.0000  0.0000  0.0000  0.0000  0.0000  0.0000  0.0000  1.0000      0.0000  0.0000  0.0000  0.0000  0.0000  0.0000  0.0000  0.0000  0.0000  0.0000
  o =  1.1008  v =  1.0000  0.0000  0.0000  0.0000  0.0000  0.0000  0.0000  0.0000  0.0000  0.0000      0.0000  0.0000  0.0000  0.0000  0.0000  0.0000  0.0000  0.0000  0.0000  0.0000
  o =  1.1008  v =  0.0000  1.0000  0.0000  0.0000  0.0000  0.0000  0.0000  0.0000  0.0000  0.0000      0.0000  0.0000  0.0000  0.0000  0.0000  0.0000  0.0000  0.0000  0.0000  0.0000
  o =  1.1008  v =  0.0000  0.0000  1.0000  0.0000  0.0000  0.0000  0.0000  0.0000  0.0000  0.0000      0.0000  0.0000  0.0000  0.0000  0.0000  0.0000  0.0000  0.0000  0.0000  0.0000
  o =  1.1008  v =  0.0000  0.0000  0.0000  1.0000  0.0000  0.0000  0.0000  0.0000  0.0000  0.0000      0.0000  0.0000  0.0000  0.0000  0.0000  0.0000  0.0000  0.0000  0.0000  0.0000
  o =  1.1008  v =  0.0000  0.0000  0.0000  0.0000  1.0000  0.0000  0.0000  0.0000  0.0000  0.0000      0.0000  0.0000  0.0000  0.0000  0.0000  0.0000  0.0000  0.0000  0.0000  0.0000
atom =  10  type =  3  l = 2
 
 onsite density matrix
 
spin component  1
 
  1.1008  0.0000  0.0000  0.0000  0.0000
  0.0000  1.1008  0.0000  0.0000  0.0000
  0.0000  0.0000  1.1008  0.0000  0.0000
  0.0000  0.0000  0.0000  1.1008  0.0000
  0.0000  0.0000  0.0000  0.0000  1.1008
 
spin component  2
 
  0.5927  0.0000  0.0000  0.0000  0.0000
  0.0000  0.5927  0.0000  0.0000  0.0000
  0.0000  0.0000  0.5927  0.0000  0.0000
  0.0000  0.0000  0.0000  0.5927  0.0000
  0.0000  0.0000  0.0000  0.0000  0.5927
 
 occupancies and eigenvectors
 
  o =  0.5927  v =  0.0000  0.0000  0.0000  0.0000  0.0000  1.0000  0.0000  0.0000  0.0000  0.0000      0.0000  0.0000  0.0000  0.0000  0.0000  0.0000  0.0000  0.0000  0.0000  0.0000
  o =  0.5927  v =  0.0000  0.0000  0.0000  0.0000  0.0000  0.0000  1.0000  0.0000  0.0000  0.0000      0.0000  0.0000  0.0000  0.0000  0.0000  0.0000  0.0000  0.0000  0.0000  0.0000
  o =  0.5927  v =  0.0000  0.0000  0.0000  0.0000  0.0000  0.0000  0.0000  1.0000  0.0000  0.0000      0.0000  0.0000  0.0000  0.0000  0.0000  0.0000  0.0000  0.0000  0.0000  0.0000
  o =  0.5927  v =  0.0000  0.0000  0.0000  0.0000  0.0000  0.0000  0.0000  0.0000  1.0000  0.0000      0.0000  0.0000  0.0000  0.0000  0.0000  0.0000  0.0000  0.0000  0.0000  0.0000
  o =  0.5927  v =  0.0000  0.0000  0.0000  0.0000  0.0000  0.0000  0.0000  0.0000  0.0000  1.0000      0.0000  0.0000  0.0000  0.0000  0.0000  0.0000  0.0000  0.0000  0.0000  0.0000
  o =  1.1008  v =  1.0000  0.0000  0.0000  0.0000  0.0000  0.0000  0.0000  0.0000  0.0000  0.0000      0.0000  0.0000  0.0000  0.0000  0.0000  0.0000  0.0000  0.0000  0.0000  0.0000
  o =  1.1008  v =  0.0000  1.0000  0.0000  0.0000  0.0000  0.0000  0.0000  0.0000  0.0000  0.0000      0.0000  0.0000  0.0000  0.0000  0.0000  0.0000  0.0000  0.0000  0.0000  0.0000
  o =  1.1008  v =  0.0000  0.0000  1.0000  0.0000  0.0000  0.0000  0.0000  0.0000  0.0000  0.0000      0.0000  0.0000  0.0000  0.0000  0.0000  0.0000  0.0000  0.0000  0.0000  0.0000
  o =  1.1008  v =  0.0000  0.0000  0.0000  1.0000  0.0000  0.0000  0.0000  0.0000  0.0000  0.0000      0.0000  0.0000  0.0000  0.0000  0.0000  0.0000  0.0000  0.0000  0.0000  0.0000
  o =  1.1008  v =  0.0000  0.0000  0.0000  0.0000  1.0000  0.0000  0.0000  0.0000  0.0000  0.0000      0.0000  0.0000  0.0000  0.0000  0.0000  0.0000  0.0000  0.0000  0.0000  0.0000
atom =  11  type =  3  l = 2
 
 onsite density matrix
 
spin component  1
 
  1.1008  0.0000  0.0000  0.0000  0.0000
  0.0000  1.1008  0.0000  0.0000  0.0000
  0.0000  0.0000  1.1008  0.0000  0.0000
  0.0000  0.0000  0.0000  1.1008  0.0000
  0.0000  0.0000  0.0000  0.0000  1.1008
 
spin component  2
 
  0.5927  0.0000  0.0000  0.0000  0.0000
  0.0000  0.5927  0.0000  0.0000  0.0000
  0.0000  0.0000  0.5927  0.0000  0.0000
  0.0000  0.0000  0.0000  0.5927  0.0000
  0.0000  0.0000  0.0000  0.0000  0.5927
 
 occupancies and eigenvectors
 
  o =  0.5927  v =  0.0000  0.0000  0.0000  0.0000  0.0000  1.0000  0.0000  0.0000  0.0000  0.0000      0.0000  0.0000  0.0000  0.0000  0.0000  0.0000  0.0000  0.0000  0.0000  0.0000
  o =  0.5927  v =  0.0000  0.0000  0.0000  0.0000  0.0000  0.0000  1.0000  0.0000  0.0000  0.0000      0.0000  0.0000  0.0000  0.0000  0.0000  0.0000  0.0000  0.0000  0.0000  0.0000
  o =  0.5927  v =  0.0000  0.0000  0.0000  0.0000  0.0000  0.0000  0.0000  1.0000  0.0000  0.0000      0.0000  0.0000  0.0000  0.0000  0.0000  0.0000  0.0000  0.0000  0.0000  0.0000
  o =  0.5927  v =  0.0000  0.0000  0.0000  0.0000  0.0000  0.0000  0.0000  0.0000  1.0000  0.0000      0.0000  0.0000  0.0000  0.0000  0.0000  0.0000  0.0000  0.0000  0.0000  0.0000
  o =  0.5927  v =  0.0000  0.0000  0.0000  0.0000  0.0000  0.0000  0.0000  0.0000  0.0000  1.0000      0.0000  0.0000  0.0000  0.0000  0.0000  0.0000  0.0000  0.0000  0.0000  0.0000
  o =  1.1008  v =  1.0000  0.0000  0.0000  0.0000  0.0000  0.0000  0.0000  0.0000  0.0000  0.0000      0.0000  0.0000  0.0000  0.0000  0.0000  0.0000  0.0000  0.0000  0.0000  0.0000
  o =  1.1008  v =  0.0000  1.0000  0.0000  0.0000  0.0000  0.0000  0.0000  0.0000  0.0000  0.0000      0.0000  0.0000  0.0000  0.0000  0.0000  0.0000  0.0000  0.0000  0.0000  0.0000
  o =  1.1008  v =  0.0000  0.0000  1.0000  0.0000  0.0000  0.0000  0.0000  0.0000  0.0000  0.0000      0.0000  0.0000  0.0000  0.0000  0.0000  0.0000  0.0000  0.0000  0.0000  0.0000
  o =  1.1008  v =  0.0000  0.0000  0.0000  1.0000  0.0000  0.0000  0.0000  0.0000  0.0000  0.0000      0.0000  0.0000  0.0000  0.0000  0.0000  0.0000  0.0000  0.0000  0.0000  0.0000
  o =  1.1008  v =  0.0000  0.0000  0.0000  0.0000  1.0000  0.0000  0.0000  0.0000  0.0000  0.0000      0.0000  0.0000  0.0000  0.0000  0.0000  0.0000  0.0000  0.0000  0.0000  0.0000
atom =  12  type =  3  l = 2
 
 onsite density matrix
 
spin component  1
 
  1.1008  0.0000  0.0000  0.0000  0.0000
  0.0000  1.1008  0.0000  0.0000  0.0000
  0.0000  0.0000  1.1008  0.0000  0.0000
  0.0000  0.0000  0.0000  1.1008  0.0000
  0.0000  0.0000  0.0000  0.0000  1.1008
 
spin component  2
 
  0.5927  0.0000  0.0000  0.0000  0.0000
  0.0000  0.5927  0.0000  0.0000  0.0000
  0.0000  0.0000  0.5927  0.0000  0.0000
  0.0000  0.0000  0.0000  0.5927  0.0000
  0.0000  0.0000  0.0000  0.0000  0.5927
 
 occupancies and eigenvectors
 
  o =  0.5927  v =  0.0000  0.0000  0.0000  0.0000  0.0000  1.0000  0.0000  0.0000  0.0000  0.0000      0.0000  0.0000  0.0000  0.0000  0.0000  0.0000  0.0000  0.0000  0.0000  0.0000
  o =  0.5927  v =  0.0000  0.0000  0.0000  0.0000  0.0000  0.0000  1.0000  0.0000  0.0000  0.0000      0.0000  0.0000  0.0000  0.0000  0.0000  0.0000  0.0000  0.0000  0.0000  0.0000
  o =  0.5927  v =  0.0000  0.0000  0.0000  0.0000  0.0000  0.0000  0.0000  1.0000  0.0000  0.0000      0.0000  0.0000  0.0000  0.0000  0.0000  0.0000  0.0000  0.0000  0.0000  0.0000
  o =  0.5927  v =  0.0000  0.0000  0.0000  0.0000  0.0000  0.0000  0.0000  0.0000  1.0000  0.0000      0.0000  0.0000  0.0000  0.0000  0.0000  0.0000  0.0000  0.0000  0.0000  0.0000
  o =  0.5927  v =  0.0000  0.0000  0.0000  0.0000  0.0000  0.0000  0.0000  0.0000  0.0000  1.0000      0.0000  0.0000  0.0000  0.0000  0.0000  0.0000  0.0000  0.0000  0.0000  0.0000
  o =  1.1008  v =  1.0000  0.0000  0.0000  0.0000  0.0000  0.0000  0.0000  0.0000  0.0000  0.0000      0.0000  0.0000  0.0000  0.0000  0.0000  0.0000  0.0000  0.0000  0.0000  0.0000
  o =  1.1008  v =  0.0000  1.0000  0.0000  0.0000  0.0000  0.0000  0.0000  0.0000  0.0000  0.0000      0.0000  0.0000  0.0000  0.0000  0.0000  0.0000  0.0000  0.0000  0.0000  0.0000
  o =  1.1008  v =  0.0000  0.0000  1.0000  0.0000  0.0000  0.0000  0.0000  0.0000  0.0000  0.0000      0.0000  0.0000  0.0000  0.0000  0.0000  0.0000  0.0000  0.0000  0.0000  0.0000
  o =  1.1008  v =  0.0000  0.0000  0.0000  1.0000  0.0000  0.0000  0.0000  0.0000  0.0000  0.0000      0.0000  0.0000  0.0000  0.0000  0.0000  0.0000  0.0000  0.0000  0.0000  0.0000
  o =  1.1008  v =  0.0000  0.0000  0.0000  0.0000  1.0000  0.0000  0.0000  0.0000  0.0000  0.0000      0.0000  0.0000  0.0000  0.0000  0.0000  0.0000  0.0000  0.0000  0.0000  0.0000
atom =  13  type =  4  l = 0
 
 onsite density matrix
 
spin component  1
 
  0.8190
 
spin component  2
 
  0.8190
 
 occupancies and eigenvectors
 
  o =  0.8190  v =  1.0000  0.0000      0.0000  0.0000
  o =  0.8190  v =  0.0000  1.0000      0.0000  0.0000
atom =  14  type =  4  l = 0
 
 onsite density matrix
 
spin component  1
 
  0.8190
 
spin component  2
 
  0.8190
 
 occupancies and eigenvectors
 
  o =  0.8190  v =  1.0000  0.0000      0.0000  0.0000
  o =  0.8190  v =  0.0000  1.0000      0.0000  0.0000
atom =  15  type =  4  l = 0
 
 onsite density matrix
 
spin component  1
 
  0.8190
 
spin component  2
 
  0.8190
 
 occupancies and eigenvectors
 
  o =  0.8190  v =  1.0000  0.0000      0.0000  0.0000
  o =  0.8190  v =  0.0000  1.0000      0.0000  0.0000
atom =  16  type =  4  l = 0
 
 onsite density matrix
 
spin component  1
 
  0.8190
 
spin component  2
 
  0.8190
 
 occupancies and eigenvectors
 
  o =  0.8190  v =  1.0000  0.0000      0.0000  0.0000
  o =  0.8190  v =  0.0000  1.0000      0.0000  0.0000
atom =  17  type =  4  l = 0
 
 onsite density matrix
 
spin component  1
 
  0.8190
 
spin component  2
 
  0.8190
 
 occupancies and eigenvectors
 
  o =  0.8190  v =  1.0000  0.0000      0.0000  0.0000
  o =  0.8190  v =  0.0000  1.0000      0.0000  0.0000
atom =  18  type =  4  l = 0
 
 onsite density matrix
 
spin component  1
 
  0.8190
 
spin component  2
 
  0.8190
 
 occupancies and eigenvectors
 
  o =  0.8190  v =  1.0000  0.0000      0.0000  0.0000
  o =  0.8190  v =  0.0000  1.0000      0.0000  0.0000
atom =  19  type =  4  l = 0
 
 onsite density matrix
 
spin component  1
 
  0.8190
 
spin component  2
 
  0.8190
 
 occupancies and eigenvectors
 
  o =  0.8190  v =  1.0000  0.0000      0.0000  0.0000
  o =  0.8190  v =  0.0000  1.0000      0.0000  0.0000
atom =  20  type =  4  l = 0
 
 onsite density matrix
 
spin component  1
 
  0.8190
 
spin component  2
 
  0.8190
 
 occupancies and eigenvectors
 
  o =  0.8190  v =  1.0000  0.0000      0.0000  0.0000
  o =  0.8190  v =  0.0000  1.0000      0.0000  0.0000
atom =  21  type =  4  l = 0
 
 onsite density matrix
 
spin component  1
 
  0.8190
 
spin component  2
 
  0.8190
 
 occupancies and eigenvectors
 
  o =  0.8190  v =  1.0000  0.0000      0.0000  0.0000
  o =  0.8190  v =  0.0000  1.0000      0.0000  0.0000
atom =  22  type =  4  l = 0
 
 onsite density matrix
 
spin component  1
 
  0.8190
 
spin component  2
 
  0.8190
 
 occupancies and eigenvectors
 
  o =  0.8190  v =  1.0000  0.0000      0.0000  0.0000
  o =  0.8190  v =  0.0000  1.0000      0.0000  0.0000
atom =  23  type =  4  l = 0
 
 onsite density matrix
 
spin component  1
 
  0.8190
 
spin component  2
 
  0.8190
 
 occupancies and eigenvectors
 
  o =  0.8190  v =  1.0000  0.0000      0.0000  0.0000
  o =  0.8190  v =  0.0000  1.0000      0.0000  0.0000
atom =  24  type =  4  l = 0
 
 onsite density matrix
 
spin component  1
 
  0.8190
 
spin component  2
 
  0.8190
 
 occupancies and eigenvectors
 
  o =  0.8190  v =  1.0000  0.0000      0.0000  0.0000
  o =  0.8190  v =  0.0000  1.0000      0.0000  0.0000
atom =  25  type =  4  l = 0
 
 onsite density matrix
 
spin component  1
 
  0.8190
 
spin component  2
 
  0.8190
 
 occupancies and eigenvectors
 
  o =  0.8190  v =  1.0000  0.0000      0.0000  0.0000
  o =  0.8190  v =  0.0000  1.0000      0.0000  0.0000
atom =  26  type =  4  l = 0
 
 onsite density matrix
 
spin component  1
 
  0.8190
 
spin component  2
 
  0.8190
 
 occupancies and eigenvectors
 
  o =  0.8190  v =  1.0000  0.0000      0.0000  0.0000
  o =  0.8190  v =  0.0000  1.0000      0.0000  0.0000
atom =  27  type =  4  l = 0
 
 onsite density matrix
 
spin component  1
 
  0.8190
 
spin component  2
 
  0.8190
 
 occupancies and eigenvectors
 
  o =  0.8190  v =  1.0000  0.0000      0.0000  0.0000
  o =  0.8190  v =  0.0000  1.0000      0.0000  0.0000
atom =  28  type =  4  l = 0
 
 onsite density matrix
 
spin component  1
 
  0.8190
 
spin component  2
 
  0.8190
 
 occupancies and eigenvectors
 
  o =  0.8190  v =  1.0000  0.0000      0.0000  0.0000
  o =  0.8190  v =  0.0000  1.0000      0.0000  0.0000
atom =  29  type =  4  l = 0
 
 onsite density matrix
 
spin component  1
 
  0.8190
 
spin component  2
 
  0.8190
 
 occupancies and eigenvectors
 
  o =  0.8190  v =  1.0000  0.0000      0.0000  0.0000
  o =  0.8190  v =  0.0000  1.0000      0.0000  0.0000
atom =  30  type =  4  l = 0
 
 onsite density matrix
 
spin component  1
 
  0.8190
 
spin component  2
 
  0.8190
 
 occupancies and eigenvectors
 
  o =  0.8190  v =  1.0000  0.0000      0.0000  0.0000
  o =  0.8190  v =  0.0000  1.0000      0.0000  0.0000
     EDDAV:  cpu time    1.7560: real time    1.7629
 BZINTS: Fermi energy: 32.953533;228.000000 electrons
         Band energy:3476.914913;  BLOECHL correction: -0.285184
       DOS:  cpu time    0.0043: real time    0.0063
    --------------------------------------------
      LOOP:  cpu time    1.8785: real time    1.8917

 eigenvalue-minimisations  :  2504
 total energy-change (2. order) : 0.3617358E+04  (-0.8001690E+04)
 number of electron     228.0000000 magnetization      20.0000000
 augmentation part      228.0000000 magnetization      20.0000000

 Free energy of the ion-electron system (eV)
  ---------------------------------------------------
  alpha Z        PSCENC =       989.90297114
  Ewald energy   TEWEN  =    -15868.07377353
  -Hartree energ DENC   =     -3747.17331877
  -exchange      EXHF   =         0.00000000
  -V(xc)+E(xc)   XCENC  =       797.70973315
  PAW double counting   =     14758.73374630   -14913.13971078
  entropy T*S    EENTRO =         0.00000000
  eigenvalues    EBANDS =      3476.91491333
  atomic energy  EATOM  =     18122.48301372
  Solvation  Ediel_sol  =         0.00000000
  ---------------------------------------------------
  free energy    TOTEN  =      3617.35757455 eV

  energy without entropy =     3617.35757455  energy(sigma->0) =     3617.35757455


--------------------------------------------------------------------------------------------------------




--------------------------------------- Iteration      1(   2)  ---------------------------------------


     EDDAV:  cpu time    1.7214: real time    1.7286
 BZINTS: Fermi energy: 16.730379;228.000000 electrons
         Band energy:1116.781350;  BLOECHL correction: -0.046596
       DOS:  cpu time    0.0039: real time    0.0039
    --------------------------------------------
      LOOP:  cpu time    1.7254: real time    1.7325

 eigenvalue-minimisations  :  2608
 total energy-change (2. order) :-0.2360134E+04  (-0.2133006E+04)
 number of electron     228.0000000 magnetization      20.0000000
 augmentation part      228.0000000 magnetization      20.0000000

 Free energy of the ion-electron system (eV)
  ---------------------------------------------------
  alpha Z        PSCENC =       989.90297114
  Ewald energy   TEWEN  =    -15868.07377353
  -Hartree energ DENC   =     -3747.17331877
  -exchange      EXHF   =         0.00000000
  -V(xc)+E(xc)   XCENC  =       797.70973315
  PAW double counting   =     14758.73374630   -14913.13971078
  entropy T*S    EENTRO =         0.00000000
  eigenvalues    EBANDS =      1116.78135009
  atomic energy  EATOM  =     18122.48301372
  Solvation  Ediel_sol  =         0.00000000
  ---------------------------------------------------
  free energy    TOTEN  =      1257.22401131 eV

  energy without entropy =     1257.22401131  energy(sigma->0) =     1257.22401131


--------------------------------------------------------------------------------------------------------




--------------------------------------- Iteration      1(   3)  ---------------------------------------


     EDDAV:  cpu time    1.8042: real time    1.8109
 BZINTS: Fermi energy: 12.443254;228.000000 electrons
         Band energy: 137.113439;  BLOECHL correction: -0.035100
       DOS:  cpu time    0.0041: real time    0.0041
    --------------------------------------------
      LOOP:  cpu time    1.8082: real time    1.8150

 eigenvalue-minimisations  :  2560
 total energy-change (2. order) :-0.9796679E+03  (-0.8763311E+03)
 number of electron     228.0000000 magnetization      20.0000000
 augmentation part      228.0000000 magnetization      20.0000000

 Free energy of the ion-electron system (eV)
  ---------------------------------------------------
  alpha Z        PSCENC =       989.90297114
  Ewald energy   TEWEN  =    -15868.07377353
  -Hartree energ DENC   =     -3747.17331877
  -exchange      EXHF   =         0.00000000
  -V(xc)+E(xc)   XCENC  =       797.70973315
  PAW double counting   =     14758.73374630   -14913.13971078
  entropy T*S    EENTRO =         0.00000000
  eigenvalues    EBANDS =       137.11343939
  atomic energy  EATOM  =     18122.48301372
  Solvation  Ediel_sol  =         0.00000000
  ---------------------------------------------------
  free energy    TOTEN  =       277.55610061 eV

  energy without entropy =      277.55610061  energy(sigma->0) =      277.55610061


--------------------------------------------------------------------------------------------------------




--------------------------------------- Iteration      1(   4)  ---------------------------------------


     EDDAV:  cpu time    2.3030: real time    2.3113
 BZINTS: Fermi energy: 11.766411;228.000000 electrons
         Band energy:-292.120024;  BLOECHL correction: -0.008203
       DOS:  cpu time    0.0039: real time    0.0039
    --------------------------------------------
      LOOP:  cpu time    2.3069: real time    2.3151

 eigenvalue-minimisations  :  3736
 total energy-change (2. order) :-0.4292335E+03  (-0.4069010E+03)
 number of electron     228.0000000 magnetization      20.0000000
 augmentation part      228.0000000 magnetization      20.0000000

 Free energy of the ion-electron system (eV)
  ---------------------------------------------------
  alpha Z        PSCENC =       989.90297114
  Ewald energy   TEWEN  =    -15868.07377353
  -Hartree energ DENC   =     -3747.17331877
  -exchange      EXHF   =         0.00000000
  -V(xc)+E(xc)   XCENC  =       797.70973315
  PAW double counting   =     14758.73374630   -14913.13971078
  entropy T*S    EENTRO =         0.00000000
  eigenvalues    EBANDS =      -292.12002418
  atomic energy  EATOM  =     18122.48301372
  Solvation  Ediel_sol  =         0.00000000
  ---------------------------------------------------
  free energy    TOTEN  =      -151.67736296 eV

  energy without entropy =     -151.67736296  energy(sigma->0) =     -151.67736296


--------------------------------------------------------------------------------------------------------




--------------------------------------- Iteration      1(   5)  ---------------------------------------


     EDDAV:  cpu time    2.5541: real time    2.5612
 BZINTS: Fermi energy: 11.228207;227.948140 electrons
         Band energy:-384.382452;  BLOECHL correction: -0.020219
       DOS:  cpu time    0.0043: real time    0.0046
    CHARGE:  cpu time    0.1088: real time    0.1092
    MIXING:  cpu time    0.0038: real time    0.0043
    --------------------------------------------
      LOOP:  cpu time    2.6711: real time    2.6792

 eigenvalue-minimisations  :  4334
 total energy-change (2. order) :-0.9226243E+02  (-0.8860670E+02)
 number of electron     227.9481386 magnetization      18.9040452
 augmentation part       31.0514639 magnetization      14.5656912

 Broyden mixing:
  rms(total) = 0.83241E+01    rms(broyden)= 0.83237E+01
  rms(prec ) = 0.89193E+01
  weight for this iteration     100.00

 Free energy of the ion-electron system (eV)
  ---------------------------------------------------
  alpha Z        PSCENC =       989.90297114
  Ewald energy   TEWEN  =    -15868.07377353
  -Hartree energ DENC   =     -3747.17331877
  -exchange      EXHF   =         0.00000000
  -V(xc)+E(xc)   XCENC  =       797.70973315
  PAW double counting   =     14758.73374630   -14913.13971078
  entropy T*S    EENTRO =         0.00000000
  eigenvalues    EBANDS =      -384.38245199
  atomic energy  EATOM  =     18122.48301372
  Solvation  Ediel_sol  =         0.00000000
  ---------------------------------------------------
  free energy    TOTEN  =      -243.93979076 eV

  energy without entropy =     -243.93979076  energy(sigma->0) =     -243.93979076


--------------------------------------------------------------------------------------------------------




--------------------------------------- Iteration      1(   6)  ---------------------------------------


    POTLOK:  cpu time    0.0985: real time    0.1002
    SETDIJ:  cpu time    0.0147: real time    0.0147
atom =   1  type =  1  l = 0
 
 onsite density matrix
 
spin component  1
 
  1.0563
 
spin component  2
 
  1.0565
 
 occupancies and eigenvectors
 
  o =  1.0563  v =  1.0000  0.0000      0.0000  0.0000
  o =  1.0565  v =  0.0000  1.0000      0.0000  0.0000
atom =   2  type =  1  l = 0
 
 onsite density matrix
 
spin component  1
 
  1.0566
 
spin component  2
 
  1.0565
 
 occupancies and eigenvectors
 
  o =  1.0565  v =  0.0000  1.0000      0.0000  0.0000
  o =  1.0566  v =  1.0000  0.0000      0.0000  0.0000
atom =   3  type =  1  l = 0
 
 onsite density matrix
 
spin component  1
 
  1.0562
 
spin component  2
 
  1.0571
 
 occupancies and eigenvectors
 
  o =  1.0562  v =  1.0000  0.0000      0.0000  0.0000
  o =  1.0571  v =  0.0000  1.0000      0.0000  0.0000
atom =   4  type =  1  l = 0
 
 onsite density matrix
 
spin component  1
 
  1.0566
 
spin component  2
 
  1.0565
 
 occupancies and eigenvectors
 
  o =  1.0565  v =  0.0000  1.0000      0.0000  0.0000
  o =  1.0566  v =  1.0000  0.0000      0.0000  0.0000
atom =   5  type =  1  l = 0
 
 onsite density matrix
 
spin component  1
 
  1.0563
 
spin component  2
 
  1.0565
 
 occupancies and eigenvectors
 
  o =  1.0563  v =  1.0000  0.0000      0.0000  0.0000
  o =  1.0565  v =  0.0000  1.0000      0.0000  0.0000
atom =   6  type =  1  l = 0
 
 onsite density matrix
 
spin component  1
 
  1.0576
 
spin component  2
 
  1.0578
 
 occupancies and eigenvectors
 
  o =  1.0576  v =  1.0000  0.0000      0.0000  0.0000
  o =  1.0578  v =  0.0000  1.0000      0.0000  0.0000
atom =   7  type =  2  l = 2
 
 onsite density matrix
 
spin component  1
 
  0.9367  0.0029 -0.0030  0.0029  0.0000
  0.0029  0.9367  0.0015  0.0029 -0.0026
 -0.0030  0.0015  0.3241  0.0015 -0.0000
  0.0029  0.0029  0.0015  0.9367  0.0026
  0.0000 -0.0026 -0.0000  0.0026  0.3241
 
spin component  2
 
  0.0446 -0.0023  0.0024 -0.0023 -0.0000
 -0.0023  0.0446 -0.0012 -0.0023  0.0021
  0.0024 -0.0012  0.4698 -0.0012 -0.0000
 -0.0023 -0.0023 -0.0012  0.0446 -0.0021
 -0.0000  0.0021 -0.0000 -0.0021  0.4698
 
 occupancies and eigenvectors
 
  o =  0.0401  v =  0.0000  0.0000  0.0000  0.0000  0.0000  0.5774  0.5774 -0.0000  0.5774 -0.0000      0.0000  0.0000  0.0000  0.0000  0.0000  0.0000  0.0000  0.0000  0.0000  0.0000
  o =  0.0468  v =  0.0000  0.0000  0.0000  0.0000  0.0000  0.4564  0.3581 -0.0039 -0.8145 -0.0058      0.0000  0.0000  0.0000  0.0000  0.0000  0.0000  0.0000  0.0000  0.0000  0.0000
  o =  0.0468  v =  0.0000  0.0000  0.0000  0.0000  0.0000 -0.6770  0.7337  0.0058 -0.0567 -0.0039      0.0000  0.0000  0.0000  0.0000  0.0000  0.0000  0.0000  0.0000  0.0000  0.0000
  o =  0.3241  v = -0.0049  0.0023 -0.9997  0.0026 -0.0253  0.0000  0.0000  0.0000  0.0000  0.0000      0.0000  0.0000  0.0000  0.0000  0.0000  0.0000  0.0000  0.0000  0.0000  0.0000
  o =  0.3241  v = -0.0001  0.0043 -0.0253 -0.0042  0.9997  0.0000  0.0000  0.0000  0.0000  0.0000      0.0000  0.0000  0.0000  0.0000  0.0000  0.0000  0.0000  0.0000  0.0000  0.0000
  o =  0.4698  v =  0.0000  0.0000  0.0000  0.0000  0.0000  0.0057 -0.0024  0.9963 -0.0033  0.0857      0.0000  0.0000  0.0000  0.0000  0.0000  0.0000  0.0000  0.0000  0.0000  0.0000
  o =  0.4698  v =  0.0000  0.0000  0.0000  0.0000  0.0000 -0.0005  0.0052 -0.0857 -0.0047  0.9963      0.0000  0.0000  0.0000  0.0000  0.0000  0.0000  0.0000  0.0000  0.0000  0.0000
  o =  0.9338  v =  0.8001 -0.5412 -0.0059 -0.2589  0.0012  0.0000  0.0000  0.0000  0.0000  0.0000      0.0000  0.0000  0.0000  0.0000  0.0000  0.0000  0.0000  0.0000  0.0000  0.0000
  o =  0.9338  v = -0.1630 -0.6114  0.0012  0.7743  0.0059  0.0000  0.0000  0.0000  0.0000  0.0000      0.0000  0.0000  0.0000  0.0000  0.0000  0.0000  0.0000  0.0000  0.0000  0.0000
  o =  0.9426  v = -0.5774 -0.5774  0.0000 -0.5774 -0.0000  0.0000  0.0000  0.0000  0.0000  0.0000      0.0000  0.0000  0.0000  0.0000  0.0000  0.0000  0.0000  0.0000  0.0000  0.0000
atom =   8  type =  2  l = 2
 
 onsite density matrix
 
spin component  1
 
  0.9367  0.0029 -0.0030  0.0029  0.0000
  0.0029  0.9367  0.0015  0.0029 -0.0026
 -0.0030  0.0015  0.3241  0.0015 -0.0000
  0.0029  0.0029  0.0015  0.9367  0.0026
  0.0000 -0.0026 -0.0000  0.0026  0.3241
 
spin component  2
 
  0.0446 -0.0023  0.0024 -0.0023 -0.0000
 -0.0023  0.0446 -0.0012 -0.0023  0.0021
  0.0024 -0.0012  0.4698 -0.0012 -0.0000
 -0.0023 -0.0023 -0.0012  0.0446 -0.0021
 -0.0000  0.0021 -0.0000 -0.0021  0.4698
 
 occupancies and eigenvectors
 
  o =  0.0401  v =  0.0000  0.0000  0.0000  0.0000  0.0000  0.5774  0.5774  0.0000  0.5774  0.0000      0.0000  0.0000  0.0000  0.0000  0.0000  0.0000  0.0000  0.0000  0.0000  0.0000
  o =  0.0468  v =  0.0000  0.0000  0.0000  0.0000  0.0000 -0.0927 -0.6562  0.0008  0.7489  0.0069      0.0000  0.0000  0.0000  0.0000  0.0000  0.0000  0.0000  0.0000  0.0000  0.0000
  o =  0.0468  v =  0.0000  0.0000  0.0000  0.0000  0.0000  0.8112 -0.4859 -0.0069 -0.3253  0.0008      0.0000  0.0000  0.0000  0.0000  0.0000  0.0000  0.0000  0.0000  0.0000  0.0000
  o =  0.3241  v = -0.0049  0.0023 -0.9993  0.0026 -0.0368  0.0000  0.0000  0.0000  0.0000  0.0000      0.0000  0.0000  0.0000  0.0000  0.0000  0.0000  0.0000  0.0000  0.0000  0.0000
  o =  0.3241  v =  0.0002 -0.0043  0.0368  0.0041 -0.9993  0.0000  0.0000  0.0000  0.0000  0.0000      0.0000  0.0000  0.0000  0.0000  0.0000  0.0000  0.0000  0.0000  0.0000  0.0000
  o =  0.4698  v =  0.0000  0.0000  0.0000  0.0000  0.0000  0.0056 -0.0020  0.9852 -0.0036  0.1712      0.0000  0.0000  0.0000  0.0000  0.0000  0.0000  0.0000  0.0000  0.0000  0.0000
  o =  0.4698  v =  0.0000  0.0000  0.0000  0.0000  0.0000 -0.0010  0.0053 -0.1712 -0.0044  0.9852      0.0000  0.0000  0.0000  0.0000  0.0000  0.0000  0.0000  0.0000  0.0000  0.0000
  o =  0.9338  v =  0.0390  0.6868 -0.0003 -0.7258 -0.0060  0.0000  0.0000  0.0000  0.0000  0.0000      0.0000  0.0000  0.0000  0.0000  0.0000  0.0000  0.0000  0.0000  0.0000  0.0000
  o =  0.9338  v =  0.8155 -0.4416 -0.0060 -0.3740  0.0003  0.0000  0.0000  0.0000  0.0000  0.0000      0.0000  0.0000  0.0000  0.0000  0.0000  0.0000  0.0000  0.0000  0.0000  0.0000
  o =  0.9426  v = -0.5774 -0.5774  0.0000 -0.5774  0.0000  0.0000  0.0000  0.0000  0.0000  0.0000      0.0000  0.0000  0.0000  0.0000  0.0000  0.0000  0.0000  0.0000  0.0000  0.0000
atom =   9  type =  3  l = 2
 
 onsite density matrix
 
spin component  1
 
[...]
 -0.000   0.001   0.000   0.000   0.000  -0.000  -0.000  -0.000   0.000   0.001   0.001   0.001  -0.000  -0.000  -0.000  -0.000
  0.000  -0.000  -0.000  -0.000  -0.000   0.000  -0.000   0.000  -0.001  -0.000   0.001  -0.000   0.000   0.000   0.000  -0.000
  0.000  -0.000   0.000   0.000  -0.000   0.000   0.000  -0.000  -0.000  -0.001  -0.000   0.001   0.002   0.000   0.000   0.000
 -0.000   0.001   0.000   0.000   0.000   0.000  -0.000  -0.000   0.000   0.000   0.001   0.001   0.001  -0.000  -0.000  -0.000
 -0.000   0.001   0.000   0.000   0.000  -0.000  -0.000   0.000   0.001   0.002   0.001  -0.000  -0.001  -0.000  -0.001  -0.000
 -0.000   0.002   0.000   0.000   0.000  -0.000  -0.000  -0.000   0.002   0.002   0.000   0.002  -0.000  -0.001  -0.001  -0.000
 -0.000   0.001   0.000   0.000   0.000  -0.000   0.000  -0.000   0.002   0.000  -0.002  -0.000   0.001  -0.001   0.000   0.001
  0.000  -0.001  -0.000  -0.000  -0.000   0.000   0.000   0.000   0.000  -0.002  -0.001  -0.002   0.000   0.000   0.001   0.000
 -0.000   0.001   0.000   0.000   0.000  -0.000   0.000  -0.000   0.002  -0.000  -0.002   0.000  -0.001  -0.001  -0.000   0.001
 -0.000   0.000   0.000  -0.000  -0.000  -0.000  -0.000   0.000   0.000   0.001   0.000  -0.001  -0.003   0.000  -0.000  -0.000
  0.000  -0.001  -0.000  -0.000  -0.000  -0.000   0.000   0.000  -0.001   0.000  -0.001  -0.002  -0.001   0.000   0.000   0.000


------------------------ aborting loop because EDIFF is reached ----------------------------------------


 


 total charge     
 
# of ion       s       p       d       f       tot
--------------------------------------------------
    1        2.001   5.699   0.499   0.192   8.391
    2        2.002   5.700   0.510   0.198   8.410
    3        2.000   5.703   0.498   0.196   8.398
    4        2.002   5.700   0.510   0.198   8.410
    5        2.001   5.699   0.499   0.192   8.391
    6        2.000   5.699   0.488   0.188   8.376
    7        0.352   0.557   4.853   0.000   5.763
    8        0.352   0.557   4.853   0.000   5.763
    9        0.432   0.655   8.326   0.000   9.413
   10        0.401   0.576   8.318   0.000   9.296
   11        0.432   0.655   8.326   0.000   9.413
   12        0.401   0.576   8.318   0.000   9.296
   13        1.563   3.492   0.000   0.000   5.055
   14        1.561   3.493   0.000   0.000   5.054
   15        1.563   3.492   0.000   0.000   5.055
   16        1.560   3.526   0.000   0.000   5.087
   17        1.562   3.515   0.000   0.000   5.077
   18        1.560   3.526   0.000   0.000   5.087
   19        1.563   3.441   0.000   0.000   5.004
   20        1.562   3.456   0.000   0.000   5.018
   21        1.563   3.441   0.000   0.000   5.004
   22        1.560   3.433   0.000   0.000   4.994
   23        1.562   3.431   0.000   0.000   4.993
   24        1.560   3.433   0.000   0.000   4.994
   25        1.563   3.424   0.000   0.000   4.987
   26        1.562   3.447   0.000   0.000   5.010
   27        1.563   3.424   0.000   0.000   4.987
   28        1.560   3.383   0.000   0.000   4.943
   29        1.561   3.387   0.000   0.000   4.948
   30        1.560   3.383   0.000   0.000   4.943
--------------------------------------------------
tot         42.488  99.905  46.001   1.165 189.559

 


 magnetization (x)
 
# of ion       s       p       d       f       tot
--------------------------------------------------
    1        0.000  -0.000   0.004   0.002   0.007
    2        0.001   0.001   0.009   0.004   0.014
    3        0.001   0.001   0.013   0.005   0.020
    4        0.001   0.001   0.009   0.004   0.014
    5        0.000  -0.000   0.004   0.002   0.007
    6        0.000  -0.000   0.003   0.001   0.004
    7        0.021   0.023   3.207   0.000   3.251
    8        0.021   0.023   3.207   0.000   3.251
    9        0.018   0.018   1.387   0.000   1.423
   10        0.013  -0.001   1.602   0.000   1.614
   11        0.018   0.018   1.387   0.000   1.423
   12        0.013  -0.001   1.602   0.000   1.614
   13        0.005  -0.037   0.000   0.000  -0.033
   14        0.002  -0.009   0.000   0.000  -0.007
   15        0.005  -0.037   0.000   0.000  -0.033
   16        0.007  -0.015   0.000   0.000  -0.007
   17        0.007  -0.043   0.000   0.000  -0.036
   18        0.007  -0.015   0.000   0.000  -0.007
   19        0.004  -0.046   0.000   0.000  -0.042
   20        0.002  -0.018   0.000   0.000  -0.016
   21        0.004  -0.046   0.000   0.000  -0.042
   22        0.006  -0.050   0.000   0.000  -0.044
   23        0.006  -0.069   0.000   0.000  -0.063
   24        0.006  -0.050   0.000   0.000  -0.044
   25        0.004  -0.046   0.000   0.000  -0.043
   26        0.001  -0.014   0.000   0.000  -0.012
   27        0.004  -0.046   0.000   0.000  -0.043
   28        0.006  -0.078   0.000   0.000  -0.072
   29        0.005  -0.091   0.000   0.000  -0.086
   30        0.006  -0.078   0.000   0.000  -0.072
--------------------------------------------------
tot          0.196  -0.707  12.432   0.019  11.940

 
    CHARGE:  cpu time    0.1032: real time    0.1034
    FORLOC:  cpu time    0.0137: real time    0.0138
    FORNL :  cpu time    0.5666: real time    0.5682
    STRESS:  cpu time    1.7061: real time    1.7110
    FORCOR:  cpu time    0.1076: real time    0.1078
    FORHAR:  cpu time    0.0224: real time    0.0225
    MIXING:  cpu time    0.0058: real time    0.0061
    OFIELD:  cpu time    0.0001: real time    0.0002

  FORCE on cell =-STRESS in cart. coord.  units (eV):
  Direction    XX          YY          ZZ          XY          YZ          ZX
  --------------------------------------------------------------------------------------
  Alpha Z   989.90297   989.90297   989.90297
  Ewald   -5289.37710 -5289.37710 -5289.37710   -60.08929   -60.08926   -60.08929
  Hartree  1263.39820  1263.39820  1263.39820   -63.43533   -63.43532   -63.43533
  E(xc)   -1066.85128 -1066.85130 -1066.85130     0.03666     0.03667     0.03666
  Local    -820.60933  -820.61001  -820.61001   123.21054   123.21117   123.21054
  n-local   428.31637   429.22733   430.63510    -2.92442     1.16578    -0.01433
  augment   634.19970   634.20020   634.20020     0.03515     0.03466     0.03515
  Kinetic  3870.72928  3864.26909  3846.92128    -7.52294     7.59387     2.59907
  Fock        0.00000     0.00000     0.00000     0.00000     0.00000     0.00000
  -------------------------------------------------------------------------------------
  Total       0.69584     0.69584     0.69584     0.05677     0.05677     0.05677
  in kB       3.21207     3.21207     3.21207     0.26207     0.26207     0.26207
  external pressure =        3.21 kB  Pullay stress =        0.00 kB


 VOLUME and BASIS-vectors are now :
 -----------------------------------------------------------------------------
  energy-cutoff  :      520.00
  volume of cell :      347.09
      direct lattice vectors                 reciprocal lattice vectors
     3.863145532  0.000000000 -3.863145532     0.086285471  0.086285471 -0.172570943
    -3.863145532  3.863145532  0.000000000    -0.086285471  0.172570943 -0.086285471
     7.752358101  7.752358101  7.752358101     0.042997670  0.042997670  0.042997670

  length of vectors
     5.463312805  5.463312805 13.427478109     0.211355377  0.211355377  0.074474149


 FORCES acting on ions
    electron-ion (+dipol)            ewald-force                    non-local-force                 convergence-correction
 -----------------------------------------------------------------------------------------------
   0.878E+02 0.878E+02 0.878E+02   -.871E+02 -.871E+02 -.871E+02   -.667E+00 -.667E+00 -.667E+00   0.158E-02 0.158E-02 0.158E-02
   0.114E+03 0.114E+03 0.114E+03   -.113E+03 -.113E+03 -.113E+03   -.950E+00 -.950E+00 -.950E+00   0.449E-02 0.449E-02 0.449E-02
   0.127E-12 0.104E-12 0.145E-12   0.142E-13 0.121E-12 0.853E-13   0.136E-19 0.136E-19 0.136E-19   -.102E-11 -.100E-11 -.102E-11
   -.114E+03 -.114E+03 -.114E+03   0.113E+03 0.113E+03 0.113E+03   0.950E+00 0.950E+00 0.950E+00   -.449E-02 -.449E-02 -.449E-02
   -.878E+02 -.878E+02 -.878E+02   0.871E+02 0.871E+02 0.871E+02   0.667E+00 0.667E+00 0.667E+00   -.158E-02 -.158E-02 -.158E-02
   0.518E-13 0.277E-13 0.717E-13   0.711E-14 0.142E-12 -.853E-13   0.488E-18 0.542E-19 0.542E-19   0.129E-11 0.131E-11 0.130E-11
   0.364E+02 0.364E+02 0.364E+02   -.360E+02 -.360E+02 -.360E+02   -.415E+00 -.415E+00 -.415E+00   0.767E-02 0.767E-02 0.767E-02
   -.364E+02 -.364E+02 -.364E+02   0.360E+02 0.360E+02 0.360E+02   0.415E+00 0.415E+00 0.415E+00   -.767E-02 -.767E-02 -.767E-02
   0.234E+02 0.234E+02 0.234E+02   -.237E+02 -.237E+02 -.237E+02   0.331E+00 0.331E+00 0.331E+00   0.321E-02 0.321E-02 0.321E-02
   0.754E+02 0.754E+02 0.754E+02   -.741E+02 -.741E+02 -.741E+02   -.139E+01 -.139E+01 -.139E+01   -.209E-04 -.209E-04 -.209E-04
   -.234E+02 -.234E+02 -.234E+02   0.237E+02 0.237E+02 0.237E+02   -.331E+00 -.331E+00 -.331E+00   -.321E-02 -.321E-02 -.321E-02
   -.754E+02 -.754E+02 -.754E+02   0.741E+02 0.741E+02 0.741E+02   0.139E+01 0.139E+01 0.139E+01   0.209E-04 0.209E-04 0.209E-04
   -.341E+02 -.340E+02 -.700E+02   0.337E+02 0.337E+02 0.641E+02   0.370E+00 0.370E+00 0.580E+01   -.278E-02 -.278E-02 0.153E-02
   -.820E-14 0.333E-12 0.198E-12   0.533E-13 -.355E-14 0.604E-13   -.678E-20 -.678E-20 0.000E+00   -.601E-12 -.582E-12 -.607E-12
   0.341E+02 0.340E+02 0.700E+02   -.337E+02 -.337E+02 -.641E+02   -.370E+00 -.370E+00 -.580E+01   0.278E-02 0.278E-02 -.153E-02
   0.262E+02 0.262E+02 0.481E+02   -.253E+02 -.253E+02 -.490E+02   -.885E+00 -.885E+00 0.849E+00   0.410E-03 0.410E-03 0.996E-03
   -.137E-12 0.203E-12 0.102E-12   0.213E-13 0.711E-14 -.568E-13   0.186E-19 0.169E-20 0.000E+00   0.804E-12 0.820E-12 0.865E-12
   -.262E+02 -.262E+02 -.481E+02   0.253E+02 0.253E+02 0.490E+02   0.885E+00 0.885E+00 -.849E+00   -.410E-03 -.410E-03 -.996E-03
   -.341E+02 -.700E+02 -.340E+02   0.337E+02 0.641E+02 0.337E+02   0.370E+00 0.580E+01 0.370E+00   -.278E-02 0.153E-02 -.278E-02
   -.137E-12 0.662E-13 -.458E-12   -.888E-13 0.355E-14 0.817E-13   0.136E-19 0.000E+00 0.152E-19   -.595E-12 -.598E-12 -.583E-12
   0.341E+02 0.700E+02 0.340E+02   -.337E+02 -.641E+02 -.337E+02   -.370E+00 -.580E+01 -.370E+00   0.278E-02 -.153E-02 0.278E-02
   0.262E+02 0.481E+02 0.262E+02   -.253E+02 -.490E+02 -.253E+02   -.885E+00 0.849E+00 -.885E+00   0.410E-03 0.996E-03 0.410E-03
   -.521E-11 -.244E-11 -.554E-11   0.568E-13 0.213E-13 0.284E-13   0.678E-20 0.000E+00 0.678E-20   0.819E-12 0.865E-12 0.813E-12
   -.262E+02 -.481E+02 -.262E+02   0.253E+02 0.490E+02 0.253E+02   0.885E+00 -.849E+00 0.885E+00   -.410E-03 -.996E-03 -.410E-03
   -.700E+02 -.340E+02 -.340E+02   0.641E+02 0.337E+02 0.337E+02   0.580E+01 0.370E+00 0.370E+00   0.153E-02 -.278E-02 -.278E-02
   -.182E-11 -.782E-12 0.732E-12   0.462E-13 -.355E-14 0.604E-13   0.678E-20 0.136E-19 -.678E-20   -.639E-12 -.580E-12 -.595E-12
   0.700E+02 0.340E+02 0.340E+02   -.641E+02 -.337E+02 -.337E+02   -.580E+01 -.370E+00 -.370E+00   -.153E-02 0.278E-02 0.278E-02
   0.481E+02 0.262E+02 0.262E+02   -.490E+02 -.253E+02 -.253E+02   0.849E+00 -.885E+00 -.885E+00   0.996E-03 0.410E-03 0.410E-03
   -.391E-11 -.165E-11 -.412E-11   0.497E-13 0.284E-13 0.568E-13   0.275E-20 0.953E-20 0.275E-20   0.811E-12 0.823E-12 0.806E-12
   -.481E+02 -.262E+02 -.262E+02   0.490E+02 0.253E+02 0.253E+02   -.849E+00 0.885E+00 0.885E+00   -.996E-03 -.410E-03 -.410E-03
 -----------------------------------------------------------------------------------------------
   0.318E-10 0.399E-10 0.269E-10   0.711E-14 0.426E-13 -.142E-12   -.999E-15 0.333E-15 0.111E-15   0.695E-12 0.942E-12 0.735E-12
 
 
 POSITION                                       TOTAL-FORCE (eV/Angst)
 -----------------------------------------------------------------------------------
      7.81856      7.81856      3.95542         0.018036      0.018036      0.018036
      3.97707      7.84022      3.97707         0.013791      0.013791      0.013791
      3.87618      3.87618      3.87618        -0.000000     -0.000000     -0.000000
      3.77529      3.77529     -0.08786        -0.013791     -0.013791     -0.013791
     -0.06620      3.79694     -0.06620        -0.018036     -0.018036     -0.018036
      0.00000      0.00000      0.00000        -0.000000     -0.000000     -0.000000
      5.81457      5.81456      1.95142        -0.020579     -0.020579     -0.020579
      1.93779      5.80094      1.93779         0.020579      0.020579      0.020579
      5.81683      9.67997      5.81683        -0.000349     -0.000349     -0.000349
      5.81160      5.81160      5.81160        -0.015100     -0.015100     -0.015100
      1.93553      1.93553     -1.92761         0.000349      0.000349      0.000349
      1.94076      1.94076      1.94076         0.015100      0.015100      0.015100
      1.96056      5.82370      0.05853        -0.000167     -0.000167     -0.014983
      1.94461      5.80775      3.87618        -0.000000     -0.000000     -0.000000
      5.79180      5.79180      3.83068         0.000167      0.000167      0.014983
      5.80600      9.66914      3.89081         0.026287      0.026287      0.013127
     -1.93157      1.93157      0.00000        -0.000000     -0.000000     -0.000000
      1.94636      1.94636     -0.00160        -0.026287     -0.026287     -0.013127
      1.96056      3.92168      1.96056        -0.000167     -0.014983     -0.000167
      5.80775      3.87618      1.94461        -0.000000     -0.000000     -0.000000
      5.79180      7.69383      1.92865         0.000167      0.014983      0.000167
      5.80600      7.75396      5.80599         0.026287      0.013127      0.026287
      1.93157      0.00000     -1.93157        -0.000000     -0.000000     -0.000000
      1.94636      3.86155     -1.91678        -0.026287     -0.013127     -0.026287
      0.05853      5.82370      1.96056        -0.014983     -0.000167     -0.000167
      3.87618      5.80775      1.94461        -0.000000     -0.000000     -0.000000
      7.69383      5.79180      1.92865         0.014983      0.000167      0.000167
      3.89081      9.66914      5.80599         0.013127      0.026287      0.026287
      0.00000      1.93157     -1.93157        -0.000000     -0.000000     -0.000000
      3.86154      1.94636     -1.91678        -0.013127     -0.026287     -0.026287
 -----------------------------------------------------------------------------------
    total drift:                                0.000000      0.000000      0.000000


--------------------------------------------------------------------------------------------------------



  FREE ENERGIE OF THE ION-ELECTRON SYSTEM (eV)
  ---------------------------------------------------
  free  energy   TOTEN  =      -213.74951201 eV

  energy  without entropy=     -213.74951201  energy(sigma->0) =     -213.74951201
 


--------------------------------------------------------------------------------------------------------


    POTLOK:  cpu time    0.1099: real time    0.1101


--------------------------------------------------------------------------------------------------------


     LOOP+:  cpu time   45.9356: real time   46.1140
    4ORBIT:  cpu time    0.0000: real time    0.0000
 


 total charge     
 
# of ion       s       p       d       f       tot
--------------------------------------------------
    1        2.001   5.699   0.499   0.192   8.391
    2        2.002   5.700   0.510   0.198   8.410
    3        2.000   5.703   0.498   0.196   8.398
    4        2.002   5.700   0.510   0.198   8.410
    5        2.001   5.699   0.499   0.192   8.391
    6        2.000   5.699   0.488   0.188   8.376
    7        0.352   0.557   4.853   0.000   5.763
    8        0.352   0.557   4.853   0.000   5.763
    9        0.432   0.655   8.326   0.000   9.413
   10        0.401   0.576   8.318   0.000   9.296
   11        0.432   0.655   8.326   0.000   9.413
   12        0.401   0.576   8.318   0.000   9.296
   13        1.563   3.492   0.000   0.000   5.055
   14        1.561   3.493   0.000   0.000   5.054
   15        1.563   3.492   0.000   0.000   5.055
   16        1.560   3.526   0.000   0.000   5.087
   17        1.562   3.515   0.000   0.000   5.077
   18        1.560   3.526   0.000   0.000   5.087
   19        1.563   3.441   0.000   0.000   5.004
   20        1.562   3.456   0.000   0.000   5.018
   21        1.563   3.441   0.000   0.000   5.004
   22        1.560   3.433   0.000   0.000   4.994
   23        1.562   3.431   0.000   0.000   4.993
   24        1.560   3.433   0.000   0.000   4.994
   25        1.563   3.424   0.000   0.000   4.987
   26        1.562   3.447   0.000   0.000   5.010
   27        1.563   3.424   0.000   0.000   4.987
   28        1.560   3.383   0.000   0.000   4.943
   29        1.561   3.387   0.000   0.000   4.948
   30        1.560   3.383   0.000   0.000   4.943
--------------------------------------------------
tot         42.488  99.905  46.001   1.165 189.559

 


 magnetization (x)
 
# of ion       s       p       d       f       tot
--------------------------------------------------
    1        0.000  -0.000   0.004   0.002   0.007
    2        0.001   0.001   0.009   0.004   0.014
    3        0.001   0.001   0.013   0.005   0.020
    4        0.001   0.001   0.009   0.004   0.014
    5        0.000  -0.000   0.004   0.002   0.007
    6        0.000  -0.000   0.003   0.001   0.004
    7        0.021   0.023   3.207   0.000   3.251
    8        0.021   0.023   3.207   0.000   3.251
    9        0.018   0.018   1.387   0.000   1.423
   10        0.013  -0.001   1.602   0.000   1.614
   11        0.018   0.018   1.387   0.000   1.423
   12        0.013  -0.001   1.602   0.000   1.614
   13        0.005  -0.037   0.000   0.000  -0.033
   14        0.002  -0.009   0.000   0.000  -0.007
   15        0.005  -0.037   0.000   0.000  -0.033
   16        0.007  -0.015   0.000   0.000  -0.007
   17        0.007  -0.043   0.000   0.000  -0.036
   18        0.007  -0.015   0.000   0.000  -0.007
   19        0.004  -0.046   0.000   0.000  -0.042
   20        0.002  -0.018   0.000   0.000  -0.016
   21        0.004  -0.046   0.000   0.000  -0.042
   22        0.006  -0.050   0.000   0.000  -0.044
   23        0.006  -0.069   0.000   0.000  -0.063
   24        0.006  -0.050   0.000   0.000  -0.044
   25        0.004  -0.046   0.000   0.000  -0.043
   26        0.001  -0.014   0.000   0.000  -0.012
   27        0.004  -0.046   0.000   0.000  -0.043
   28        0.006  -0.078   0.000   0.000  -0.072
   29        0.005  -0.091   0.000   0.000  -0.086
   30        0.006  -0.078   0.000   0.000  -0.072
--------------------------------------------------
tot          0.196  -0.707  12.432   0.019  11.940

 
 BZINTS: Fermi energy:  7.678891;228.000000 electrons
         Band energy:-290.341065;  BLOECHL correction: -0.031545

 total amount of memory used by VASP MPI-rank0    60667. kBytes
=======================================================================

   base      :      30000. kBytes
   nonlr-proj:       7887. kBytes
   fftplans  :       3363. kBytes
   grid      :       9817. kBytes
   one-center:        294. kBytes
   wavefun   :       9306. kBytes
 
  
  
 General timing and accounting informations for this job:
 ========================================================
  
                  Total CPU time used (sec):       52.698
                            User time (sec):       49.990
                          System time (sec):        2.709
                         Elapsed time (sec):       53.049
  
                   Maximum memory used (kb):      102716.
                   Average memory used (kb):           0.
  
                          Minor page faults:        35458
                          Major page faults:            0
                 Voluntary context switches:         1105
