       N       E                     dE             d eps       ncg     rms          rms(c)
DAV:   1     0.360855628580E+04    0.36086E+04   -0.79822E+04  7532   0.251E+03
DAV:   2     0.125262293818E+04   -0.23559E+04   -0.21311E+04  7848   0.649E+02
DAV:   3     0.273901774366E+03   -0.97872E+03   -0.87730E+03  7728   0.328E+02
DAV:   4    -0.152758834025E+03   -0.42666E+03   -0.40465E+03 11112   0.179E+02
DAV:   5    -0.243271214568E+03   -0.90512E+02   -0.87263E+02 13008   0.979E+01    0.826E+01
RMM:   6    -0.215697074664E+03    0.27574E+02   -0.72661E+02 11870   0.111E+02    0.107E+02
RMM:   7    -0.217795080433E+03   -0.20980E+01   -0.15607E+02 12362   0.341E+01    0.525E+01
RMM:   8    -0.210292297540E+03    0.75028E+01   -0.65007E+01 10210   0.382E+01    0.225E+01
RMM:   9    -0.213458088196E+03   -0.31658E+01   -0.28952E+01 11464   0.167E+01    0.159E+01
RMM:  10    -0.213398959945E+03    0.59128E-01   -0.49304E+00 12206   0.666E+00    0.105E+01
RMM:  11    -0.213505991709E+03   -0.10703E+00   -0.25970E+00 12337   0.427E+00    0.628E+00
RMM:  12    -0.213681066068E+03   -0.17507E+00   -0.13118E+00 12629   0.303E+00    0.339E+00
RMM:  13    -0.213738255768E+03   -0.57190E-01   -0.32419E-01 11939   0.165E+00    0.210E+00
RMM:  14    -0.213754058712E+03   -0.15803E-01   -0.14959E-01 11554   0.124E+00    0.111E+00
RMM:  15    -0.213758647555E+03   -0.45888E-02   -0.60672E-02 10532   0.750E-01    0.803E-01
RMM:  16    -0.213761183021E+03   -0.25355E-02   -0.35610E-02  9781   0.526E-01    0.374E-01
RMM:  17    -0.213763323525E+03   -0.21405E-02   -0.25405E-02  8915   0.449E-01    0.124E-01
RMM:  18    -0.213764821829E+03   -0.14983E-02   -0.13447E-02  7356   0.376E-01    0.776E-02
RMM:  19    -0.213765808012E+03   -0.98618E-03   -0.10063E-02  6851   0.332E-01    0.639E-02
RMM:  20    -0.213766466820E+03   -0.65881E-03   -0.64242E-03  6686   0.282E-01
   1 F= -.21376647E+03 E0= -.21376647E+03  d E =0.000000E+00  mag=    11.9995
