       N       E                     dE             d eps       ncg     rms          rms(c)
DAV:   1     0.357242722100E+04    0.35724E+04   -0.78279E+04  6220   0.245E+03
DAV:   2     0.124589878036E+04   -0.23265E+04   -0.20929E+04  6488   0.631E+02
DAV:   3     0.273269021921E+03   -0.97263E+03   -0.86888E+03  6456   0.328E+02
DAV:   4    -0.159821877586E+03   -0.43309E+03   -0.40830E+03  9388   0.181E+02
DAV:   5    -0.249807694137E+03   -0.89986E+02   -0.86584E+02 10600   0.987E+01    0.758E+01
RMM:   6    -0.223807989415E+03    0.26000E+02   -0.71286E+02  9770   0.106E+02    0.102E+02
RMM:   7    -0.224647780667E+03   -0.83979E+00   -0.14348E+02 10314   0.345E+01    0.476E+01
RMM:   8    -0.217831901686E+03    0.68159E+01   -0.66089E+01  7675   0.405E+01    0.283E+01
RMM:   9    -0.220176155978E+03   -0.23443E+01   -0.29660E+01  9642   0.159E+01    0.192E+01
RMM:  10    -0.220424808953E+03   -0.24865E+00   -0.60661E+00 10117   0.782E+00    0.137E+01
RMM:  11    -0.220396942010E+03    0.27867E-01   -0.27547E+00 10483   0.465E+00    0.659E+00
RMM:  12    -0.220390824194E+03    0.61178E-02   -0.14942E+00 10370   0.350E+00    0.456E+00
RMM:  13    -0.220433755027E+03   -0.42931E-01   -0.54851E-01 10323   0.186E+00    0.282E+00
RMM:  14    -0.220455337220E+03   -0.21582E-01   -0.18735E-01 10167   0.121E+00    0.175E+00
RMM:  15    -0.220464191546E+03   -0.88543E-02   -0.88275E-02  9415   0.720E-01    0.883E-01
RMM:  16    -0.220465453302E+03   -0.12618E-02   -0.35653E-02  8399   0.552E-01    0.553E-01
RMM:  17    -0.220466999488E+03   -0.15462E-02   -0.26878E-02  7844   0.442E-01    0.244E-01
RMM:  18    -0.220468257367E+03   -0.12579E-02   -0.12865E-02  6408   0.385E-01    0.101E-01
RMM:  19    -0.220469069251E+03   -0.81188E-03   -0.84547E-03  5758   0.317E-01
   1 F= -.22046907E+03 E0= -.22046907E+03  d E =0.000000E+00  mag=    14.9947
