       N       E                     dE             d eps       ncg     rms          rms(c)
DAV:   1     0.293160285964E+04    0.29316E+04   -0.67091E+04  6240   0.248E+03
DAV:   2     0.985545067360E+03   -0.19461E+04   -0.17551E+04  6584   0.626E+02
DAV:   3     0.198862395154E+03   -0.78668E+03   -0.70766E+03  6456   0.321E+02
DAV:   4    -0.138985100940E+03   -0.33785E+03   -0.32077E+03  9504   0.169E+02
DAV:   5    -0.206206370768E+03   -0.67221E+02   -0.64793E+02 10858   0.909E+01    0.716E+01
RMM:   6    -0.183785632960E+03    0.22421E+02   -0.60323E+02  9935   0.105E+02    0.956E+01
RMM:   7    -0.182640137214E+03    0.11455E+01   -0.11292E+02 10151   0.353E+01    0.408E+01
RMM:   8    -0.177897741473E+03    0.47424E+01   -0.37555E+01  8425   0.332E+01    0.196E+01
RMM:   9    -0.179978906623E+03   -0.20812E+01   -0.20381E+01  9634   0.154E+01    0.130E+01
RMM:  10    -0.180211394561E+03   -0.23249E+00   -0.38753E+00 10700   0.581E+00    0.833E+00
RMM:  11    -0.180287370382E+03   -0.75976E-01   -0.15659E+00 10640   0.372E+00    0.499E+00
RMM:  12    -0.180376921951E+03   -0.89552E-01   -0.78570E-01 10598   0.259E+00    0.293E+00
RMM:  13    -0.180398575774E+03   -0.21654E-01   -0.26223E-01 10018   0.163E+00    0.142E+00
RMM:  14    -0.180413698743E+03   -0.15123E-01   -0.11257E-01  9790   0.913E-01    0.919E-01
RMM:  15    -0.180419100238E+03   -0.54015E-02   -0.46178E-02  8644   0.702E-01    0.411E-01
RMM:  16    -0.180421383671E+03   -0.22834E-02   -0.26291E-02  7283   0.439E-01    0.251E-01
RMM:  17    -0.180423312179E+03   -0.19285E-02   -0.17242E-02  6546   0.442E-01    0.689E-02
RMM:  18    -0.180424385693E+03   -0.10735E-02   -0.10896E-02  6015   0.355E-01    0.510E-02
RMM:  19    -0.180425239413E+03   -0.85372E-03   -0.77417E-03  5716   0.323E-01
   1 F= -.18042524E+03 E0= -.18042524E+03  d E =0.000000E+00  mag=    11.0025
