 vasp.5.4.4.18Apr17-6-g9f103f2a35 (build Oct 03 2018 13:58:34) complex          
  
 executed on             LinuxIFC date 2019.06.04  00:53:19
 running on   40 total cores
 distrk:  each k-point on   20 cores,    2 groups
 distr:  one band on NCORES_PER_BAND=  10 cores,    2 groups


--------------------------------------------------------------------------------------------------------


 INCAR:
 POTCAR:    PAW_PBE La 06Sep2000                  
 POTCAR:    PAW_PBE Mn 06Sep2000                  
 POTCAR:    PAW_PBE Ni 02Aug2007                  
 POTCAR:    PAW_PBE O 08Apr2002                   

 ----------------------------------------------------------------------------- 
|                                                                             |
|           W    W    AA    RRRRR   N    N  II  N    N   GGGG   !!!           |
|           W    W   A  A   R    R  NN   N  II  NN   N  G    G  !!!           |
|           W    W  A    A  R    R  N N  N  II  N N  N  G       !!!           |
|           W WW W  AAAAAA  RRRRR   N  N N  II  N  N N  G  GGG   !            |
|           WW  WW  A    A  R   R   N   NN  II  N   NN  G    G                |
|           W    W  A    A  R    R  N    N  II  N    N   GGGG   !!!           |
|                                                                             |
|      You have enabled k-point parallelism (KPAR>1).                         |
|      This developmental code was originally  written by Paul Kent at ORNL,  |
|      and carefully double checked in Vienna.                                |
|      GW as well as linear response parallelism added by Martijn Marsman     |
|      and Georg Kresse.                                                      |
|      Carefully verify results versus KPAR=1.                                |
|      Report problems to Paul Kent and Vienna.                               |
|                                                                             |
 ----------------------------------------------------------------------------- 

 POTCAR:    PAW_PBE La 06Sep2000                  
   VRHFIN =La : [core=Kr4d]                                                     
   LEXCH  = PE                                                                  
   EATOM  =   865.9763 eV,   63.6475 Ry                                         
                                                                                
   TITEL  = PAW_PBE La 06Sep2000                                                
   LULTRA =        F    use ultrasoft PP ?                                      
   IUNSCR =        1    unscreen: 0-lin 1-nonlin 2-no                           
   RPACOR =    2.300    partial core radius                                     
   POMASS =  138.900; ZVAL   =   11.000    mass and valenz                      
   RCORE  =    2.800    outmost cutoff radius                                   
   RWIGS  =    2.900; RWIGS  =    1.535    wigner-seitz radius (au A)           
   ENMAX  =  219.292; ENMIN  =  164.469 eV                                      
   RCLOC  =    1.601    cutoff for local pot                                    
   LCOR   =        T    correct aug charges                                     
   LPAW   =        T    paw PP                                                  
   EAUG   =  583.575                                                            
   DEXC   =    0.000                                                            
   RMAX   =    2.853    core radius for proj-oper                               
   RAUG   =    1.300    factor for augmentation sphere                          
   RDEP   =    2.802    radius for radial grids                                 
   RDEPT  =    2.156    core radius for aug-charge                              
                                                                                
   Atomic configuration                                                         
   14 entries                                                                   
     n  l   j            E        occ.                                          
     1  0  0.50    -38741.0879   2.0000                                         
     2  0  0.50     -6166.6801   2.0000                                         
     2  1  1.50     -5526.1593   6.0000                                         
     3  0  0.50     -1319.0200   2.0000                                         
     3  1  1.50     -1114.5963   6.0000                                         
     3  2  2.50      -821.1793  10.0000                                         
     4  0  0.50      -266.3851   2.0000                                         
     4  1  1.50      -199.9276   6.0000                                         
     4  2  2.50      -103.8239  10.0000                                         
     5  0  0.50       -38.9172   2.0000                                         
     6  0  0.50        -3.6792   2.0000                                         
     5  1  1.50       -22.3948   6.0000                                         
     5  2  2.50        -3.0911   0.9999                                         
     4  3  2.50        -4.3603   0.0001                                         
   Description                                                                  
     l       E           TYP  RCUT    TYP  RCUT                                 
     0    -38.9171645     23  2.800                                             
     0     -3.6792381     23  2.800                                             
     1    -22.3948300     23  2.500                                             
     1     27.2116520     23  2.500                                             
     2     -3.0910934     23  2.500                                             
     2      1.0119135     23  2.500                                             
     3     -4.3602911     23  2.800                                             
     3     -5.7208737     23  2.800                                             
  local pseudopotential read in
  partial core-charges read in
  partial kinetic energy density read in
  atomic valenz-charges read in
  non local Contribution for L=           0  read in
    real space projection operators read in
  non local Contribution for L=           0  read in
    real space projection operators read in
  non local Contribution for L=           1  read in
    real space projection operators read in
  non local Contribution for L=           1  read in
    real space projection operators read in
  non local Contribution for L=           2  read in
    real space projection operators read in
  non local Contribution for L=           2  read in
    real space projection operators read in
  non local Contribution for L=           3  read in
    real space projection operators read in
  non local Contribution for L=           3  read in
    real space projection operators read in
    PAW grid and wavefunctions read in
 
   number of l-projection  operators is LMAX  =           8
   number of lm-projection operators is LMMAX =          32
 
 POTCAR:    PAW_PBE Mn 06Sep2000                  
   VRHFIN =Mn: d6 s1                                                            
   LEXCH  = PE                                                                  
   EATOM  =   416.7541 eV,   30.6306 Ry                                         
                                                                                
   TITEL  = PAW_PBE Mn 06Sep2000                                                
   LULTRA =        F    use ultrasoft PP ?                                      
   IUNSCR =        1    unscreen: 0-lin 1-nonlin 2-no                           
   RPACOR =    2.000    partial core radius                                     
   POMASS =   54.938; ZVAL   =    7.000    mass and valenz                      
   RCORE  =    2.300    outmost cutoff radius                                   
   RWIGS  =    2.500; RWIGS  =    1.323    wigner-seitz radius (au A)           
   ENMAX  =  269.864; ENMIN  =  202.398 eV                                      
   RCLOC  =    1.725    cutoff for local pot                                    
   LCOR   =        T    correct aug charges                                     
   LPAW   =        T    paw PP                                                  
   EAUG   =  500.711                                                            
   DEXC   =    0.000                                                            
   RMAX   =    2.343    core radius for proj-oper                               
   RAUG   =    1.300    factor for augmentation sphere                          
   RDEP   =    2.338    radius for radial grids                                 
   RDEPT  =    1.911    core radius for aug-charge                              
                                                                                
   Atomic configuration                                                         
    9 entries                                                                   
     n  l   j            E        occ.                                          
     1  0  0.50     -6424.8288   2.0000                                         
     2  0  0.50      -739.1154   2.0000                                         
     2  1  1.50      -625.3949   6.0000                                         
     3  0  0.50       -81.6100   2.0000                                         
     3  1  1.50       -50.4667   6.0000                                         
     3  2  2.50        -3.3745   6.0000                                         
     4  0  0.50        -4.1331   1.0000                                         
     4  1  0.50        -4.0817   0.0000                                         
     4  3  2.50        -1.3606   0.0000                                         
   Description                                                                  
     l       E           TYP  RCUT    TYP  RCUT                                 
     2     -3.3744664     23  2.300                                             
     2     -4.7350490     23  2.300                                             
     0     -4.1331408     23  2.300                                             
     0      7.6656614     23  2.300                                             
     1     -2.7211652     23  2.300                                             
     1     20.4087390     23  2.300                                             
  local pseudopotential read in
  partial core-charges read in
  partial kinetic energy density read in
  atomic valenz-charges read in
  non local Contribution for L=           2  read in
    real space projection operators read in
  non local Contribution for L=           2  read in
    real space projection operators read in
  non local Contribution for L=           0  read in
    real space projection operators read in
  non local Contribution for L=           0  read in
    real space projection operators read in
  non local Contribution for L=           1  read in
    real space projection operators read in
  non local Contribution for L=           1  read in
    real space projection operators read in
    PAW grid and wavefunctions read in
 
   number of l-projection  operators is LMAX  =           6
   number of lm-projection operators is LMMAX =          18
 
 POTCAR:    PAW_PBE Ni 02Aug2007                  
   VRHFIN =Ni:                                                                  
   LEXCH  = PE                                                                  
   EATOM  =  1077.6739 eV,   79.2068 Ry                                         
                                                                                
   TITEL  = PAW_PBE Ni 02Aug2007                                                
   LULTRA =        F    use ultrasoft PP ?                                      
   IUNSCR =        1    unscreen: 0-lin 1-nonlin 2-no                           
   RPACOR =    2.000    partial core radius                                     
   POMASS =   58.690; ZVAL   =   10.000    mass and valenz                      
   RCORE  =    2.300    outmost cutoff radius                                   
   RWIGS  =    2.430; RWIGS  =    1.286    wigner-seitz radius (au A)           
   ENMAX  =  269.532; ENMIN  =  202.149 eV                                      
   RCLOC  =    1.201    cutoff for local pot                                    
   LCOR   =        T    correct aug charges                                     
   LPAW   =        T    paw PP                                                  
   EAUG   =  544.565                                                            
   DEXC   =    0.000                                                            
   RMAX   =    2.357    core radius for proj-oper                               
   RAUG   =    1.300    factor for augmentation sphere                          
   RDEP   =    2.390    radius for radial grids                                 
   RDEPT  =    1.838    core radius for aug-charge                              
                                                                                
   Atomic configuration                                                         
    9 entries                                                                   
     n  l   j            E        occ.                                          
     1  0  0.50     -8206.4253   2.0000                                         
     2  0  0.50      -976.1748   2.0000                                         
     2  1  1.50      -839.0571   6.0000                                         
     3  0  0.50      -105.9991   2.0000                                         
     3  1  1.50       -66.4603   6.0000                                         
     3  2  2.50        -4.6458   9.0000                                         
     4  0  0.50        -4.4926   1.0000                                         
     4  1  1.50        -4.0817   0.0000                                         
     4  3  2.50        -1.3606   0.0000                                         
   Description                                                                  
     l       E           TYP  RCUT    TYP  RCUT                                 
     2     -4.6457903     23  2.300                                             
     2     -6.0063729     23  2.300                                             
     0     -4.4925590     23  2.300                                             
     0      5.0102601     23  2.300                                             
     1     -2.7211652     23  2.300                                             
     1     16.5183231     23  2.300                                             
  local pseudopotential read in
  partial core-charges read in
  partial kinetic energy density read in
  atomic valenz-charges read in
  non local Contribution for L=           2  read in
    real space projection operators read in
  non local Contribution for L=           2  read in
    real space projection operators read in
  non local Contribution for L=           0  read in
    real space projection operators read in
  non local Contribution for L=           0  read in
    real space projection operators read in
  non local Contribution for L=           1  read in
    real space projection operators read in
  non local Contribution for L=           1  read in
    real space projection operators read in
    PAW grid and wavefunctions read in
 
   number of l-projection  operators is LMAX  =           6
   number of lm-projection operators is LMMAX =          18
 
 POTCAR:    PAW_PBE O 08Apr2002                   
   VRHFIN =O: s2p4                                                              
   LEXCH  = PE                                                                  
   EATOM  =   432.3788 eV,   31.7789 Ry                                         
                                                                                
   TITEL  = PAW_PBE O 08Apr2002                                                 
   LULTRA =        F    use ultrasoft PP ?                                      
   IUNSCR =        1    unscreen: 0-lin 1-nonlin 2-no                           
   RPACOR =    1.200    partial core radius                                     
   POMASS =   16.000; ZVAL   =    6.000    mass and valenz                      
   RCORE  =    1.520    outmost cutoff radius                                   
   RWIGS  =    1.550; RWIGS  =    0.820    wigner-seitz radius (au A)           
   ENMAX  =  400.000; ENMIN  =  300.000 eV                                      
   ICORE  =        2    local potential                                         
   LCOR   =        T    correct aug charges                                     
   LPAW   =        T    paw PP                                                  
   EAUG   =  605.392                                                            
   DEXC   =    0.000                                                            
   RMAX   =    1.553    core radius for proj-oper                               
   RAUG   =    1.300    factor for augmentation sphere                          
   RDEP   =    1.550    radius for radial grids                                 
   RDEPT  =    1.329    core radius for aug-charge                              
                                                                                
   Atomic configuration                                                         
    4 entries                                                                   
     n  l   j            E        occ.                                          
     1  0  0.50      -514.6923   2.0000                                         
     2  0  0.50       -23.9615   2.0000                                         
     2  1  0.50        -9.0305   4.0000                                         
     3  2  1.50        -9.5241   0.0000                                         
   Description                                                                  
     l       E           TYP  RCUT    TYP  RCUT                                 
     0    -23.9615318     23  1.200                                             
     0     -9.5240782     23  1.200                                             
     1     -9.0304911     23  1.520                                             
     1      8.1634956     23  1.520                                             
     2     -9.5240782      7  1.500                                             
  local pseudopotential read in
  partial core-charges read in
  partial kinetic energy density read in
  kinetic energy density of atom read in
  atomic valenz-charges read in
  non local Contribution for L=           0  read in
    real space projection operators read in
  non local Contribution for L=           0  read in
    real space projection operators read in
  non local Contribution for L=           1  read in
    real space projection operators read in
  non local Contribution for L=           1  read in
    real space projection operators read in
    PAW grid and wavefunctions read in
 
   number of l-projection  operators is LMAX  =           4
   number of lm-projection operators is LMMAX =           8
 
 Optimization of the real space projectors (new method)

 maximal supplied QI-value         = 13.42
 optimisation between [QCUT,QGAM] = [ 11.67, 23.35] = [ 38.16,152.62] Ry 
 Optimized for a Real-space Cutoff    1.63 Angstroem

   l    n(q)    QCUT    max X(q) W(low)/X(q) W(high)/X(q)  e(spline) 
   0     11    11.673    13.882    0.27E-04    0.79E-05    0.11E-06
   0     11    11.673    12.184    0.39E-04    0.13E-04    0.19E-06
   1     11    11.673     4.523    0.73E-05    0.76E-05    0.12E-06
   1     11    11.673     4.424    0.87E-05    0.13E-04    0.19E-06
   2     10    11.673    52.481    0.65E-04    0.36E-04    0.18E-06
   2     10    11.673    38.501    0.61E-04    0.33E-04    0.17E-06
   3     10    11.673    65.631    0.17E-03    0.14E-03    0.37E-06
   3     10    11.673    56.854    0.17E-03    0.14E-03    0.37E-06
 Optimization of the real space projectors (new method)

 maximal supplied QI-value         = 16.25
 optimisation between [QCUT,QGAM] = [ 11.54, 23.24] = [ 37.28,151.24] Ry 
 Optimized for a Real-space Cutoff    1.53 Angstroem

   l    n(q)    QCUT    max X(q) W(low)/X(q) W(high)/X(q)  e(spline) 
   2     10    11.539   110.144    0.12E-03    0.13E-03    0.25E-06
   2     10    11.539   103.200    0.12E-03    0.13E-03    0.25E-06
   0     11    11.539    68.437    0.46E-04    0.21E-04    0.32E-06
   0     11    11.539    33.971    0.37E-04    0.19E-04    0.29E-06
   1     10    11.539    17.065    0.51E-04    0.22E-04    0.13E-06
   1     10    11.539    12.540    0.41E-04    0.18E-04    0.11E-06
 Optimization of the real space projectors (new method)

 maximal supplied QI-value         = 16.25
 optimisation between [QCUT,QGAM] = [ 11.54, 23.24] = [ 37.28,151.24] Ry 
 Optimized for a Real-space Cutoff    1.45 Angstroem

   l    n(q)    QCUT    max X(q) W(low)/X(q) W(high)/X(q)  e(spline) 
   2      9    11.539    60.317    0.19E-03    0.47E-04    0.16E-06
   2      9    11.539    55.921    0.19E-03    0.48E-04    0.16E-06
   0     10    11.539    51.690    0.80E-04    0.50E-04    0.24E-06
   0     10    11.539    30.015    0.73E-04    0.45E-04    0.22E-06
   1     10    11.539    18.849    0.87E-04    0.16E-03    0.71E-07
   1     10    11.539    14.624    0.73E-04    0.13E-03    0.64E-07
 Optimization of the real space projectors (new method)

 maximal supplied QI-value         = 24.76
 optimisation between [QCUT,QGAM] = [ 11.64, 23.27] = [ 37.91,151.63] Ry 
 Optimized for a Real-space Cutoff    1.14 Angstroem

   l    n(q)    QCUT    max X(q) W(low)/X(q) W(high)/X(q)  e(spline) 
   0      8    11.635    20.381    0.10E-03    0.33E-03    0.24E-06
   0      8    11.635    15.268    0.11E-03    0.35E-03    0.26E-06
   1      7    11.635     5.964    0.24E-03    0.31E-03    0.30E-06
   1      7    11.635     5.382    0.22E-03    0.25E-03    0.26E-06
  PAW_PBE La 06Sep2000                  :
 energy of atom  1       EATOM= -865.9763
 kinetic energy error for atom=    0.0009 (will be added to EATOM!!)
  PAW_PBE Mn 06Sep2000                  :
 energy of atom  2       EATOM= -416.7541
 kinetic energy error for atom=    0.0024 (will be added to EATOM!!)
  PAW_PBE Ni 02Aug2007                  :
 energy of atom  3       EATOM=-1077.6739
 kinetic energy error for atom=    0.0030 (will be added to EATOM!!)
  PAW_PBE O 08Apr2002                   :
 energy of atom  4       EATOM= -432.3788
 kinetic energy error for atom=    0.0208 (will be added to EATOM!!)
 
 
 POSCAR: SCEL5_1_5_1_4_0_0/1                     
  positions in direct lattice
  velocities in cartesian coordinates
 exchange correlation table for  LEXCH =        8
   RHO(1)=    0.500       N(1)  =     2000
   RHO(2)=  100.500       N(2)  =     4000
 


--------------------------------------------------------------------------------------------------------


 ion  position               nearest neighbor table
   1  0.000  0.607  0.213-  24 2.60  14 2.66  14 2.66  19 2.66  19 2.66  25 2.76  25 2.76   9 3.24
                             9 3.24  10 3.38  10 3.38  10 3.38  10 3.38   2 3.66   2 3.66
   2  0.000  0.193  0.387-  25 2.60  14 2.66  14 2.66  19 2.66  19 2.66  24 2.76  24 2.76  10 3.24
                            10 3.24   9 3.38   9 3.38   9 3.38   9 3.38   1 3.66   1 3.66
   3  0.000  0.794  0.587-  24 2.56  18 2.64  13 2.64  13 2.64  18 2.64  23 2.77  23 2.77   9 3.22
                             9 3.22   8 3.38   8 3.38   8 3.38   8 3.38
   4  0.000  0.400  0.800-  23 2.72  21 2.72  17 2.73  17 2.73  12 2.73  12 2.73  16 2.73  16 2.73
                            11 2.73  11 2.73  22 2.76  22 2.76   6 3.37   6 3.37   6 3.37   6 3.37
   5  0.000  0.006  0.013-  25 2.56  20 2.64  15 2.64  15 2.64  20 2.64  21 2.77  21 2.77  10 3.22
                            10 3.22   7 3.38   7 3.38   7 3.38   7 3.38
   6  0.500  0.900  0.800-  22 1.94  22 1.94  12 1.96  17 1.96  11 1.96  16 1.96   4 3.37   4 3.37
                             4 3.37   4 3.37
   7  0.500  0.500  0.000-  20 1.90  15 1.90  21 1.94  21 1.94  16 1.95  11 1.95   5 3.38   5 3.38
                             5 3.38   5 3.38   4 3.38   4 3.38
   8  0.500  0.300  0.600-  18 1.90  13 1.90  23 1.94  23 1.94  12 1.95  17 1.95   3 3.38   3 3.38
                             3 3.38   3 3.38   4 3.38   4 3.38
   9  0.500  0.701  0.401-  24 1.94  24 1.94  14 1.96  19 1.96  18 1.99  13 1.99   3 3.22   3 3.22
                             1 3.24   1 3.24   2 3.38   2 3.38   2 3.38   2 3.38
  10  0.500  0.099  0.199-  25 1.94  25 1.94  14 1.96  19 1.96  20 1.99  15 1.99   5 3.22   5 3.22
                             2 3.24   2 3.24   1 3.38   1 3.38   1 3.38   1 3.38
  11  0.500  0.696  0.899-   7 1.95   6 1.96   4 2.73   4 2.73
  12  0.500  0.104  0.701-   8 1.95   6 1.96   4 2.73   4 2.73
  13  0.500  0.502  0.505-   8 1.90   9 1.99   3 2.64   3 2.64
  14  0.500  0.900  0.300-  10 1.96   9 1.96   1 2.66   1 2.66   2 2.66   2 2.66
  15  0.500  0.298  0.095-   7 1.90  10 1.99   5 2.64   5 2.64
  16  0.500  0.203  0.899-   7 1.95   6 1.96   4 2.73   4 2.73
  17  0.500  0.597  0.701-   8 1.95   6 1.96   4 2.73   4 2.73
  18  0.500  0.003  0.505-   8 1.90   9 1.99   3 2.64   3 2.64
  19  0.500  0.400  0.300-  10 1.96   9 1.96   1 2.66   1 2.66   2 2.66   2 2.66
  20  0.500  0.797  0.095-   7 1.90  10 1.99   5 2.64   5 2.64
  21  0.000  0.499  0.997-   7 1.94   7 1.94   4 2.72   5 2.77   5 2.77
  22  0.000  0.900  0.800-   6 1.94   6 1.94   4 2.76   4 2.76
  23  0.000  0.301  0.603-   8 1.94   8 1.94   4 2.72   3 2.77   3 2.77
  24  0.000  0.701  0.402-   9 1.94   9 1.94   3 2.56   1 2.60   2 2.76   2 2.76
  25  0.000  0.099  0.198-  10 1.94  10 1.94   5 2.56   2 2.60   1 2.76   1 2.76
 
  LATTYP: Found a base centered orthorhombic cell.
 ALAT       =     5.5140759103
 B/A-ratio  =     5.0112390388
 C/A-ratio  =     0.7032392888
  
  Lattice vectors:
  
 A1 = (   0.0000000000,  11.7190321380,   7.8199916699)
 A2 = (   0.0000000000,  -7.8199916699, -11.7190321380)
 A3 = (  -3.8777148217,   0.0000000000,   0.0000000000)


Analysis of symmetry for initial positions (statically):
=====================================================================
 Subroutine PRICEL returns:
 Original cell was already a primitive cell.
 

 Routine SETGRP: Setting up the symmetry group for a 
 base centered orthorhombic supercell.


 Subroutine GETGRP returns: Found  8 space group operations
 (whereof  4 operations were pure point group operations)
 out of a pool of  8 trial point group operations.


The static configuration has the point symmetry C_2v.
 The point group associated with its full space group is D_2h.


Analysis of symmetry for dynamics (positions and initial velocities):
=====================================================================
 Subroutine PRICEL returns:
 Original cell was already a primitive cell.
 

 Routine SETGRP: Setting up the symmetry group for a 
 base centered orthorhombic supercell.


 Subroutine GETGRP returns: Found  8 space group operations
 (whereof  4 operations were pure point group operations)
 out of a pool of  8 trial point group operations.


The dynamic configuration has the point symmetry C_2v.
 The point group associated with its full space group is D_2h.


Analysis of structural, dynamic, and magnetic symmetry:
=====================================================================
 Subroutine PRICEL returns:
 Original cell was already a primitive cell.
 

 Routine SETGRP: Setting up the symmetry group for a 
 base centered orthorhombic supercell.


 Subroutine GETGRP returns: Found  8 space group operations
 (whereof  4 operations were pure point group operations)
 out of a pool of  8 trial point group operations.


The magnetic configuration has the point symmetry C_2v.
 The point group associated with its full space group is D_2h.


 Subroutine INISYM returns: Found  8 space group operations
 (whereof  4 operations are pure point group operations),
 and found     1 'primitive' translations

 
 
 KPOINTS: Automatic mesh                          

Automatic generation of k-mesh.
 generate k-points for:    5    4    1
Space group operators:
 irot       det(A)        alpha          n_x          n_y          n_z        tau_x        tau_y        tau_z
    1     1.000000     0.000000     1.000000     0.000000     0.000000     0.000000     0.000000     0.000000
    2    -1.000000   179.999999     1.000000     0.000000     0.000000     0.000000     0.000000     0.000000
    3     1.000000   180.000000     0.000000    -0.707107    -0.707107     0.000000     0.000000     0.000000
    4    -1.000000   179.999999     0.000000    -0.707107     0.707107     0.000000     0.000000     0.000000
    5    -1.000000     0.000000     1.000000     0.000000     0.000000     0.000000     0.800000     0.600000
    6     1.000000   179.999999     1.000000     0.000000     0.000000     0.000000     0.800000     0.600000
    7    -1.000000   180.000000     0.000000    -0.707107    -0.707107     0.000000     0.800000     0.600000
    8     1.000000   179.999999     0.000000    -0.707107     0.707107     0.000000     0.800000     0.600000
 
 Subroutine IBZKPT returns following result:
 ===========================================
 
 Found      9 irreducible k-points:
 
 Following reciprocal coordinates:
            Coordinates               Weight
  0.000000  0.000000  0.000000      1.000000
  0.200000  0.000000  0.000000      2.000000
  0.400000  0.000000  0.000000      2.000000
  0.000000  0.250000  0.000000      2.000000
  0.200000  0.250000  0.000000      4.000000
  0.400000  0.250000  0.000000      4.000000
  0.000000  0.500000  0.000000      1.000000
  0.200000  0.500000  0.000000      2.000000
  0.400000  0.500000  0.000000      2.000000
 
 Following cartesian coordinates:
            Coordinates               Weight
  0.000000  0.000000  0.000000      1.000000
  0.051577  0.000000  0.000000      2.000000
  0.103154  0.000000  0.000000      2.000000
  0.000000  0.038457 -0.025662      2.000000
  0.051577  0.038457 -0.025662      4.000000
  0.103154  0.038457 -0.025662      4.000000
  0.000000  0.076913 -0.051323      1.000000
  0.051577  0.076913 -0.051323      2.000000
  0.103154  0.076913 -0.051323      2.000000
 
 TETIRR: Found     54 inequivalent tetrahedra from      120


--------------------------------------------------------------------------------------------------------




 Dimension of arrays:
   k-points           NKPTS =      9   k-points in BZ     NKDIM =      9   number of bands    NBANDS=    120
   number of dos      NEDOS =    301   number of ions     NIONS =     25
   non local maximal  LDIM  =      8   non local SUM 2l+1 LMDIM =     32
   total plane-waves  NPLWV = 136080
   max r-space proj   IRMAX =   8363   max aug-charges    IRDMAX=  24266
   dimension x,y,z NGX =    30 NGY =   42 NGZ =  108
   dimension x,y,z NGXF=    60 NGYF=   84 NGZF=  216
   support grid    NGXF=    60 NGYF=   84 NGZF=  216
   ions per type =               5   3   2  15
   NGX,Y,Z   is equivalent  to a cutoff of  12.86, 12.66, 12.74 a.u.
   NGXF,Y,Z  is equivalent  to a cutoff of  25.72, 25.33, 25.49 a.u.

 SYSTEM =  final                                   
 POSCAR =  SCEL5_1_5_1_4_0_0/1                     

 Startparameter for this run:
   NWRITE =      2    write-flag & timer
   PREC   = accura    normal or accurate (medium, high low for compatibility)
   ISTART =      0    job   : 0-new  1-cont  2-samecut
   ICHARG =      1    charge: 1-file 2-atom 10-const
   ISPIN  =      2    spin polarized calculation?
   LNONCOLLINEAR =      F non collinear calculations
   LSORBIT =      F    spin-orbit coupling
   INIWAV =      1    electr: 0-lowe 1-rand  2-diag
   LASPH  =      F    aspherical Exc in radial PAW
   METAGGA=      F    non-selfconsistent MetaGGA calc.

 Electronic Relaxation 1
   ENCUT  =  520.0 eV  38.22 Ry    6.18 a.u.   7.21 10.25 26.20*2*pi/ulx,y,z
   ENINI  =  520.0     initial cutoff
   ENAUG  =  605.4 eV  augmentation charge cutoff
   NELM   =    100;   NELMIN=  2; NELMDL= -5     # of ELM steps 
   EDIFF  = 0.1E-02   stopping-criterion for ELM
   LREAL  =      T    real-space projection
   NLSPLINE    = F    spline interpolate recip. space projectors
   LCOMPAT=      F    compatible to vasp.4.4
   GGA_COMPAT  = T    GGA compatible to vasp.4.4-vasp.4.6
   LMAXPAW     = -100 max onsite density
   LMAXMIX     =    6 max onsite mixed and CHGCAR
   VOSKOWN=      0    Vosko Wilk Nusair interpolation
   ROPT   =   -0.00025  -0.00025  -0.00025  -0.00025
 Ionic relaxation
   EDIFFG = 0.1E-01   stopping-criterion for IOM
   NSW    =      0    number of steps for IOM
   NBLOCK =      1;   KBLOCK =      1    inner block; outer block 
   IBRION =     -1    ionic relax: 0-MD 1-quasi-New 2-CG
   NFREE  =      0    steps in history (QN), initial steepest desc. (CG)
   ISIF   =      2    stress and relaxation
   IWAVPR =     10    prediction:  0-non 1-charg 2-wave 3-comb
   ISYM   =      2    0-nonsym 1-usesym 2-fastsym
   LCORR  =      T    Harris-Foulkes like correction to forces

   POTIM  = 0.5000    time-step for ionic-motion
   TEIN   =    0.0    initial temperature
   TEBEG  =    0.0;   TEEND  =   0.0 temperature during run
   SMASS  =  -3.00    Nose mass-parameter (am)
   estimated Nose-frequenzy (Omega)   =  0.10E-29 period in steps =****** mass=  -0.344E-27a.u.
   SCALEE = 1.0000    scale energy and forces
   NPACO  =    256;   APACO  = 16.0  distance and # of slots for P.C.
   PSTRESS=    0.0 pullay stress

  Mass of Ions in am
   POMASS = 138.90 54.94 58.69 16.00
  Ionic Valenz
   ZVAL   =  11.00  7.00 10.00  6.00
  Atomic Wigner-Seitz radii
   RWIGS  =  -1.00 -1.00 -1.00 -1.00
  virtual crystal weights 
   VCA    =   1.00  1.00  1.00  1.00
   NELECT =     186.0000    total number of electrons
   NUPDOWN=      -1.0000    fix difference up-down

 DOS related values:
   EMIN   =  10.00;   EMAX   =-10.00  energy-range for DOS
   EFERMI =   0.00
   ISMEAR =    -5;   SIGMA  =   0.05  broadening in eV -4-tet -1-fermi 0-gaus

 Electronic relaxation 2 (details)
   IALGO  =     68    algorithm
   LDIAG  =      T    sub-space diagonalisation (order eigenvalues)
   LSUBROT=      F    optimize rotation matrix (better conditioning)
   TURBO    =      0    0=normal 1=particle mesh
   IRESTART =      0    0=no restart 2=restart with 2 vectors
   NREBOOT  =      0    no. of reboots
   NMIN     =      0    reboot dimension
   EREF     =   0.00    reference energy to select bands
   IMIX   =      4    mixing-type and parameters
     AMIX     =   0.40;   BMIX     =  1.00
     AMIX_MAG =   1.60;   BMIX_MAG =  1.00
     AMIN     =   0.10
     WC   =   100.;   INIMIX=   1;  MIXPRE=   1;  MAXMIX= -45

 Intra band minimization:
   WEIMIN = 0.0000     energy-eigenvalue tresh-hold
   EBREAK =  0.21E-05  absolut break condition
   DEPER  =   0.30     relativ break condition  

   TIME   =   0.40     timestep for ELM

  volume/ion in A,a.u.               =      11.82        79.74
  Fermi-wavevector in a.u.,A,eV,Ry     =   1.403138  2.651546 26.787091  1.968796
  Thomas-Fermi vector in A             =   2.525830
 
 Write flags
   LWAVE        =      F    write WAVECAR
   LDOWNSAMPLE  =      F    k-point downsampling of WAVECAR
   LCHARG       =      T    write CHGCAR
   LVTOT        =      F    write LOCPOT, total local potential
   LVHAR        =      F    write LOCPOT, Hartree potential only
   LELF         =      F    write electronic localiz. function (ELF)
   LORBIT       =     11    0 simple, 1 ext, 2 COOP (PROOUT), +10 PAW based schemes


 Dipole corrections
   LMONO  =      F    monopole corrections only (constant potential shift)
   LDIPOL =      F    correct potential (dipole corrections)
   IDIPOL =      0    1-x, 2-y, 3-z, 4-all directions 
   EPSILON=  1.0000000 bulk dielectric constant

 LDA+U is selected, type is set to LDAUTYPE =  2
   angular momentum for each species LDAUL =     0    2    2    0
   U (eV)           for each species LDAUU =   0.0  3.9  6.2  0.0
   J (eV)           for each species LDAUJ =   0.0  0.0  0.0  0.0
 Exchange correlation treatment:
   GGA     =    --    GGA type
   LEXCH   =     8    internal setting for exchange type
   VOSKOWN=      0    Vosko Wilk Nusair interpolation
   LHFCALC =     F    Hartree Fock is set to
   LHFONE  =     F    Hartree Fock one center treatment
   AEXX    =    0.0000 exact exchange contribution

 Linear response parameters
   LEPSILON=     F    determine dielectric tensor
   LRPA    =     F    only Hartree local field effects (RPA)
   LNABLA  =     F    use nabla operator in PAW spheres
   LVEL    =     F    velocity operator in full k-point grid
   LINTERFAST=   F  fast interpolation
   KINTER  =     0    interpolate to denser k-point grid
   CSHIFT  =0.1000    complex shift for real part using Kramers Kronig
   OMEGAMAX=  -1.0    maximum frequency
   DEG_THRESHOLD= 0.2000000E-02 threshold for treating states as degnerate
   RTIME   =   -0.100 relaxation time in fs
  (WPLASMAI=    0.000 imaginary part of plasma frequency in eV, 0.658/RTIME)
   DFIELD  = 0.0000000 0.0000000 0.0000000 field for delta impulse in time
 
 Orbital magnetization related:
   ORBITALMAG=     F  switch on orbital magnetization
   LCHIMAG   =     F  perturbation theory with respect to B field
   DQ        =  0.001000  dq finite difference perturbation B field
   LLRAUG    =     F  two centre corrections for induced B field



--------------------------------------------------------------------------------------------------------


 Static calculation
 charge density and potential will be updated during run
 spin polarized calculation
 RMM-DIIS sequential band-by-band and
  variant of blocked Davidson during initial phase
 perform sub-space diagonalisation
    before iterative eigenvector-optimisation
 modified Broyden-mixing scheme, WC =      100.0
 initial mixing is a Kerker type mixing with AMIX =  0.4000 and BMIX =      1.0000
 Hartree-type preconditioning will be used
 using additional bands           27
 real space projection scheme for non local part
 use partial core corrections
 calculate Harris-corrections to forces 
   (improved forces if not selfconsistent)
 use gradient corrections 
 use of overlap-Matrix (Vanderbilt PP)
 Fermi weights with tetrahedron method with Bloechl corrections


--------------------------------------------------------------------------------------------------------


  energy-cutoff  :      520.00
  volume of cell :      295.42
      direct lattice vectors                 reciprocal lattice vectors
     3.877714822  0.000000000  0.000000000     0.257883843  0.000000000  0.000000000
     0.000000000  3.899040468 -3.899040468     0.000000000  0.153826494 -0.102646864
     0.000000000  7.819991670 11.719032138     0.000000000  0.051179630  0.051179630

  length of vectors
     3.877714822  5.514075910 14.088576364     0.257883843  0.184929632  0.072378926


 
 k-points in units of 2pi/SCALE and weight: Automatic mesh                          
   0.00000000  0.00000000  0.00000000       0.050
   0.05157677  0.00000000  0.00000000       0.100
   0.10315354  0.00000000  0.00000000       0.100
   0.00000000  0.03845662 -0.02566172       0.100
   0.05157677  0.03845662 -0.02566172       0.200
   0.10315354  0.03845662 -0.02566172       0.200
   0.00000000  0.07691325 -0.05132343       0.050
   0.05157677  0.07691325 -0.05132343       0.100
   0.10315354  0.07691325 -0.05132343       0.100
 
 k-points in reciprocal lattice and weights: Automatic mesh                          
   0.00000000  0.00000000  0.00000000       0.050
   0.20000000  0.00000000  0.00000000       0.100
   0.40000000  0.00000000  0.00000000       0.100
   0.00000000  0.25000000  0.00000000       0.100
   0.20000000  0.25000000  0.00000000       0.200
   0.40000000  0.25000000  0.00000000       0.200
   0.00000000  0.50000000  0.00000000       0.050
   0.20000000  0.50000000  0.00000000       0.100
   0.40000000  0.50000000  0.00000000       0.100
 
 position of ions in fractional coordinates (direct lattice) 
   0.00000000  0.60657836  0.21315672
   0.00000000  0.19342164  0.38684328
   0.00000000  0.79353372  0.58706743
   0.00000000  0.40000000  0.80000000
   0.00000000  0.00646628  0.01293257
   0.50000000  0.90000000  0.80000000
   0.50000000  0.50005225  0.00010451
   0.50000000  0.29994775  0.59989549
   0.50000000  0.70058570  0.40117140
   0.50000000  0.09941430  0.19882860
   0.50000000  0.69552931  0.89895963
   0.50000000  0.10447069  0.70104037
   0.50000000  0.50154528  0.50452243
   0.50000000  0.90000000  0.30000000
   0.50000000  0.29845472  0.09547757
   0.50000000  0.20343032  0.89895963
   0.50000000  0.59656968  0.70104037
   0.50000000  0.00297715  0.50452243
   0.50000000  0.40000000  0.30000000
   0.50000000  0.79702285  0.09547757
   0.00000000  0.49850638  0.99701277
   0.00000000  0.90000000  0.80000000
   0.00000000  0.30149362  0.60298723
   0.00000000  0.70081225  0.40162450
   0.00000000  0.09918775  0.19837550
 
 position of ions in cartesian coordinates  (Angst):
   0.00000000  4.03195738  0.13291691
   0.00000000  3.77927000  3.77927000
   0.00000000  7.68488250  3.78584203
   0.00000000  7.81560952  7.81560952
   0.00000000  0.12634488  0.12634488
   1.93885741  9.76512976  5.86608929
   1.93885741  1.95054121 -1.94849926
   1.93885741  5.86068617  5.86068617
   1.93885741  5.86876900  1.96972853
   1.93885741  1.94245838  1.94245838
   1.93885741  9.74175376  7.82303985
   1.93885741  5.88946528  7.80817919
   1.93885741  5.90090652  3.95696920
   1.93885741  5.85513392  0.00657322
   1.93885741  1.91032086 -0.04478229
   1.93885741  7.82303985  9.74175376
   1.93885741  7.80817919  5.88946528
   1.93885741  3.95696920  5.90090652
   1.93885741  3.90561369  1.95609345
   1.93885741  3.85425818 -1.98871961
   0.00000000  9.74032811  9.74032811
   0.00000000  9.76512976  5.86608929
   0.00000000  5.89089093  5.89089093
   0.00000000  5.87319560  1.97415513
   0.00000000  1.93803177  1.93803177
 


--------------------------------------------------------------------------------------------------------


 k-point  1 :   0.0000 0.0000 0.0000  plane waves:    7959
 k-point  2 :   0.2000 0.0000 0.0000  plane waves:    7967
 k-point  3 :   0.4000 0.0000 0.0000  plane waves:    7946
 k-point  4 :   0.0000 0.2500 0.0000  plane waves:    7947
 k-point  5 :   0.2000 0.2500 0.0000  plane waves:    7936
 k-point  6 :   0.4000 0.2500 0.0000  plane waves:    7962
 k-point  7 :   0.0000 0.5000 0.0000  plane waves:    7936
 k-point  8 :   0.2000 0.5000 0.0000  plane waves:    7942
 k-point  9 :   0.4000 0.5000 0.0000  plane waves:    7976

 maximum and minimum number of plane-waves per node :       817      780

 maximum number of plane-waves:      7976
 maximum index in each direction: 
   IXMAX=    7   IYMAX=   10   IZMAX=   26
   IXMIN=   -7   IYMIN=  -10   IZMIN=  -26


 real space projection operators:
  total allocation   :      17135.45 KBytes
  max/ min on nodes  :       1778.50       1673.53


 parallel 3D FFT for wavefunctions:
    minimum data exchange during FFTs selected (reduces bandwidth)
 parallel 3D FFT for charge:
    minimum data exchange during FFTs selected (reduces bandwidth)


 total amount of memory used by VASP MPI-rank0    59313. kBytes
=======================================================================

   base      :      30000. kBytes
   nonlr-proj:       5741. kBytes
   fftplans  :       2265. kBytes
   grid      :       6360. kBytes
   one-center:        294. kBytes
   wavefun   :      14653. kBytes
 
     INWAV:  cpu time    0.0000: real time    0.0000
 Broyden mixing: mesh for mixing (old mesh)
   NGX = 15   NGY = 21   NGZ = 53
  (NGX  = 60   NGY  = 84   NGZ  =216)
  gives a total of  16695 points

 initial charge density was supplied:
 charge density of overlapping atoms calculated
 number of electron     186.0000000 magnetization      18.0000000
 keeping initial charge density in first step


--------------------------------------------------------------------------------------------------------


 Maximum index for non-local projection operator          836
 Maximum index for augmentation-charges          988 (set IRDMAX)


--------------------------------------------------------------------------------------------------------


 First call to EWALD:  gamma=   0.266
 Maximum number of real-space cells 4x 3x 2
 Maximum number of reciprocal cells 2x 2x 5

    FEWALD:  cpu time    0.0019: real time    0.0022


--------------------------------------- Iteration      1(   1)  ---------------------------------------


    POTLOK:  cpu time    0.0646: real time    0.0676
    SETDIJ:  cpu time    0.0136: real time    0.0136
atom =   1  type =  1  l = 0
 
 onsite density matrix
 
spin component  1
 
  1.0989
 
spin component  2
 
  1.0989
 
 occupancies and eigenvectors
 
  o =  1.0989  v =  1.0000  0.0000      0.0000  0.0000
  o =  1.0989  v =  0.0000  1.0000      0.0000  0.0000
atom =   2  type =  1  l = 0
 
 onsite density matrix
 
spin component  1
 
  1.0989
 
spin component  2
 
  1.0989
 
 occupancies and eigenvectors
 
  o =  1.0989  v =  1.0000  0.0000      0.0000  0.0000
  o =  1.0989  v =  0.0000  1.0000      0.0000  0.0000
atom =   3  type =  1  l = 0
 
 onsite density matrix
 
spin component  1
 
  1.0989
 
spin component  2
 
  1.0989
 
 occupancies and eigenvectors
 
  o =  1.0989  v =  1.0000  0.0000      0.0000  0.0000
  o =  1.0989  v =  0.0000  1.0000      0.0000  0.0000
atom =   4  type =  1  l = 0
 
 onsite density matrix
 
spin component  1
 
  1.0989
 
spin component  2
 
  1.0989
 
 occupancies and eigenvectors
 
  o =  1.0989  v =  1.0000  0.0000      0.0000  0.0000
  o =  1.0989  v =  0.0000  1.0000      0.0000  0.0000
atom =   5  type =  1  l = 0
 
 onsite density matrix
 
spin component  1
 
  1.0989
 
spin component  2
 
  1.0989
 
 occupancies and eigenvectors
 
  o =  1.0989  v =  1.0000  0.0000      0.0000  0.0000
  o =  1.0989  v =  0.0000  1.0000      0.0000  0.0000
atom =   6  type =  2  l = 2
 
 onsite density matrix
 
spin component  1
 
  0.8272  0.0000  0.0000  0.0000  0.0000
  0.0000  0.8272  0.0000  0.0000  0.0000
  0.0000  0.0000  0.8272  0.0000  0.0000
  0.0000  0.0000  0.0000  0.8272  0.0000
  0.0000  0.0000  0.0000  0.0000  0.8272
 
spin component  2
 
  0.2256  0.0000  0.0000  0.0000  0.0000
  0.0000  0.2256  0.0000  0.0000  0.0000
  0.0000  0.0000  0.2256  0.0000  0.0000
  0.0000  0.0000  0.0000  0.2256  0.0000
  0.0000  0.0000  0.0000  0.0000  0.2256
 
 occupancies and eigenvectors
 
  o =  0.2256  v =  0.0000  0.0000  0.0000  0.0000  0.0000  0.0000  0.0000  1.0000  0.0000  0.0000      0.0000  0.0000  0.0000  0.0000  0.0000  0.0000  0.0000  0.0000  0.0000  0.0000
  o =  0.2256  v =  0.0000  0.0000  0.0000  0.0000  0.0000  1.0000  0.0000  0.0000  0.0000  0.0000      0.0000  0.0000  0.0000  0.0000  0.0000  0.0000  0.0000  0.0000  0.0000  0.0000
  o =  0.2256  v =  0.0000  0.0000  0.0000  0.0000  0.0000  0.0000  1.0000  0.0000  0.0000  0.0000      0.0000  0.0000  0.0000  0.0000  0.0000  0.0000  0.0000  0.0000  0.0000  0.0000
  o =  0.2256  v =  0.0000  0.0000  0.0000  0.0000  0.0000  0.0000  0.0000  0.0000  1.0000  0.0000      0.0000  0.0000  0.0000  0.0000  0.0000  0.0000  0.0000  0.0000  0.0000  0.0000
  o =  0.2256  v =  0.0000  0.0000  0.0000  0.0000  0.0000  0.0000  0.0000  0.0000  0.0000  1.0000      0.0000  0.0000  0.0000  0.0000  0.0000  0.0000  0.0000  0.0000  0.0000  0.0000
  o =  0.8272  v =  0.0000  1.0000  0.0000  0.0000  0.0000  0.0000  0.0000  0.0000  0.0000  0.0000      0.0000  0.0000  0.0000  0.0000  0.0000  0.0000  0.0000  0.0000  0.0000  0.0000
  o =  0.8272  v =  0.0000  0.0000  1.0000  0.0000  0.0000  0.0000  0.0000  0.0000  0.0000  0.0000      0.0000  0.0000  0.0000  0.0000  0.0000  0.0000  0.0000  0.0000  0.0000  0.0000
  o =  0.8272  v =  1.0000  0.0000  0.0000  0.0000  0.0000  0.0000  0.0000  0.0000  0.0000  0.0000      0.0000  0.0000  0.0000  0.0000  0.0000  0.0000  0.0000  0.0000  0.0000  0.0000
  o =  0.8272  v =  0.0000  0.0000  0.0000  1.0000  0.0000  0.0000  0.0000  0.0000  0.0000  0.0000      0.0000  0.0000  0.0000  0.0000  0.0000  0.0000  0.0000  0.0000  0.0000  0.0000
  o =  0.8272  v =  0.0000  0.0000  0.0000  0.0000  1.0000  0.0000  0.0000  0.0000  0.0000  0.0000      0.0000  0.0000  0.0000  0.0000  0.0000  0.0000  0.0000  0.0000  0.0000  0.0000
atom =   7  type =  2  l = 2
 
 onsite density matrix
 
spin component  1
 
  0.8272  0.0000  0.0000  0.0000  0.0000
  0.0000  0.8272  0.0000  0.0000  0.0000
  0.0000  0.0000  0.8272  0.0000  0.0000
  0.0000  0.0000  0.0000  0.8272  0.0000
  0.0000  0.0000  0.0000  0.0000  0.8272
 
spin component  2
 
  0.2256  0.0000  0.0000  0.0000  0.0000
  0.0000  0.2256  0.0000  0.0000  0.0000
  0.0000  0.0000  0.2256  0.0000  0.0000
  0.0000  0.0000  0.0000  0.2256  0.0000
  0.0000  0.0000  0.0000  0.0000  0.2256
 
 occupancies and eigenvectors
 
  o =  0.2256  v =  0.0000  0.0000  0.0000  0.0000  0.0000  0.0000  0.0000  1.0000  0.0000  0.0000      0.0000  0.0000  0.0000  0.0000  0.0000  0.0000  0.0000  0.0000  0.0000  0.0000
  o =  0.2256  v =  0.0000  0.0000  0.0000  0.0000  0.0000  1.0000  0.0000  0.0000  0.0000  0.0000      0.0000  0.0000  0.0000  0.0000  0.0000  0.0000  0.0000  0.0000  0.0000  0.0000
  o =  0.2256  v =  0.0000  0.0000  0.0000  0.0000  0.0000  0.0000  1.0000  0.0000  0.0000  0.0000      0.0000  0.0000  0.0000  0.0000  0.0000  0.0000  0.0000  0.0000  0.0000  0.0000
  o =  0.2256  v =  0.0000  0.0000  0.0000  0.0000  0.0000  0.0000  0.0000  0.0000  1.0000  0.0000      0.0000  0.0000  0.0000  0.0000  0.0000  0.0000  0.0000  0.0000  0.0000  0.0000
  o =  0.2256  v =  0.0000  0.0000  0.0000  0.0000  0.0000  0.0000  0.0000  0.0000  0.0000  1.0000      0.0000  0.0000  0.0000  0.0000  0.0000  0.0000  0.0000  0.0000  0.0000  0.0000
  o =  0.8272  v =  0.0000  1.0000  0.0000  0.0000  0.0000  0.0000  0.0000  0.0000  0.0000  0.0000      0.0000  0.0000  0.0000  0.0000  0.0000  0.0000  0.0000  0.0000  0.0000  0.0000
  o =  0.8272  v =  0.0000  0.0000  1.0000  0.0000  0.0000  0.0000  0.0000  0.0000  0.0000  0.0000      0.0000  0.0000  0.0000  0.0000  0.0000  0.0000  0.0000  0.0000  0.0000  0.0000
  o =  0.8272  v =  1.0000  0.0000  0.0000  0.0000  0.0000  0.0000  0.0000  0.0000  0.0000  0.0000      0.0000  0.0000  0.0000  0.0000  0.0000  0.0000  0.0000  0.0000  0.0000  0.0000
  o =  0.8272  v =  0.0000  0.0000  0.0000  1.0000  0.0000  0.0000  0.0000  0.0000  0.0000  0.0000      0.0000  0.0000  0.0000  0.0000  0.0000  0.0000  0.0000  0.0000  0.0000  0.0000
  o =  0.8272  v =  0.0000  0.0000  0.0000  0.0000  1.0000  0.0000  0.0000  0.0000  0.0000  0.0000      0.0000  0.0000  0.0000  0.0000  0.0000  0.0000  0.0000  0.0000  0.0000  0.0000
atom =   8  type =  2  l = 2
 
 onsite density matrix
 
spin component  1
 
  0.8272  0.0000  0.0000  0.0000  0.0000
  0.0000  0.8272  0.0000  0.0000  0.0000
  0.0000  0.0000  0.8272  0.0000  0.0000
  0.0000  0.0000  0.0000  0.8272  0.0000
  0.0000  0.0000  0.0000  0.0000  0.8272
 
spin component  2
 
  0.2256  0.0000  0.0000  0.0000  0.0000
  0.0000  0.2256  0.0000  0.0000  0.0000
  0.0000  0.0000  0.2256  0.0000  0.0000
  0.0000  0.0000  0.0000  0.2256  0.0000
  0.0000  0.0000  0.0000  0.0000  0.2256
 
 occupancies and eigenvectors
 
  o =  0.2256  v =  0.0000  0.0000  0.0000  0.0000  0.0000  0.0000  0.0000  1.0000  0.0000  0.0000      0.0000  0.0000  0.0000  0.0000  0.0000  0.0000  0.0000  0.0000  0.0000  0.0000
  o =  0.2256  v =  0.0000  0.0000  0.0000  0.0000  0.0000  1.0000  0.0000  0.0000  0.0000  0.0000      0.0000  0.0000  0.0000  0.0000  0.0000  0.0000  0.0000  0.0000  0.0000  0.0000
  o =  0.2256  v =  0.0000  0.0000  0.0000  0.0000  0.0000  0.0000  1.0000  0.0000  0.0000  0.0000      0.0000  0.0000  0.0000  0.0000  0.0000  0.0000  0.0000  0.0000  0.0000  0.0000
  o =  0.2256  v =  0.0000  0.0000  0.0000  0.0000  0.0000  0.0000  0.0000  0.0000  1.0000  0.0000      0.0000  0.0000  0.0000  0.0000  0.0000  0.0000  0.0000  0.0000  0.0000  0.0000
  o =  0.2256  v =  0.0000  0.0000  0.0000  0.0000  0.0000  0.0000  0.0000  0.0000  0.0000  1.0000      0.0000  0.0000  0.0000  0.0000  0.0000  0.0000  0.0000  0.0000  0.0000  0.0000
  o =  0.8272  v =  0.0000  1.0000  0.0000  0.0000  0.0000  0.0000  0.0000  0.0000  0.0000  0.0000      0.0000  0.0000  0.0000  0.0000  0.0000  0.0000  0.0000  0.0000  0.0000  0.0000
  o =  0.8272  v =  0.0000  0.0000  1.0000  0.0000  0.0000  0.0000  0.0000  0.0000  0.0000  0.0000      0.0000  0.0000  0.0000  0.0000  0.0000  0.0000  0.0000  0.0000  0.0000  0.0000
  o =  0.8272  v =  1.0000  0.0000  0.0000  0.0000  0.0000  0.0000  0.0000  0.0000  0.0000  0.0000      0.0000  0.0000  0.0000  0.0000  0.0000  0.0000  0.0000  0.0000  0.0000  0.0000
  o =  0.8272  v =  0.0000  0.0000  0.0000  1.0000  0.0000  0.0000  0.0000  0.0000  0.0000  0.0000      0.0000  0.0000  0.0000  0.0000  0.0000  0.0000  0.0000  0.0000  0.0000  0.0000
  o =  0.8272  v =  0.0000  0.0000  0.0000  0.0000  1.0000  0.0000  0.0000  0.0000  0.0000  0.0000      0.0000  0.0000  0.0000  0.0000  0.0000  0.0000  0.0000  0.0000  0.0000  0.0000
atom =   9  type =  3  l = 2
 
 onsite density matrix
 
spin component  1
 
  1.1008  0.0000  0.0000  0.0000  0.0000
  0.0000  1.1008  0.0000  0.0000  0.0000
  0.0000  0.0000  1.1008  0.0000  0.0000
  0.0000  0.0000  0.0000  1.1008  0.0000
  0.0000  0.0000  0.0000  0.0000  1.1008
 
spin component  2
 
  0.5927  0.0000  0.0000  0.0000  0.0000
  0.0000  0.5927  0.0000  0.0000  0.0000
  0.0000  0.0000  0.5927  0.0000  0.0000
  0.0000  0.0000  0.0000  0.5927  0.0000
  0.0000  0.0000  0.0000  0.0000  0.5927
 
 occupancies and eigenvectors
 
  o =  0.5927  v =  0.0000  0.0000  0.0000  0.0000  0.0000  1.0000  0.0000  0.0000  0.0000  0.0000      0.0000  0.0000  0.0000  0.0000  0.0000  0.0000  0.0000  0.0000  0.0000  0.0000
  o =  0.5927  v =  0.0000  0.0000  0.0000  0.0000  0.0000  0.0000  1.0000  0.0000  0.0000  0.0000      0.0000  0.0000  0.0000  0.0000  0.0000  0.0000  0.0000  0.0000  0.0000  0.0000
  o =  0.5927  v =  0.0000  0.0000  0.0000  0.0000  0.0000  0.0000  0.0000  1.0000  0.0000  0.0000      0.0000  0.0000  0.0000  0.0000  0.0000  0.0000  0.0000  0.0000  0.0000  0.0000
  o =  0.5927  v =  0.0000  0.0000  0.0000  0.0000  0.0000  0.0000  0.0000  0.0000  1.0000  0.0000      0.0000  0.0000  0.0000  0.0000  0.0000  0.0000  0.0000  0.0000  0.0000  0.0000
  o =  0.5927  v =  0.0000  0.0000  0.0000  0.0000  0.0000  0.0000  0.0000  0.0000  0.0000  1.0000      0.0000  0.0000  0.0000  0.0000  0.0000  0.0000  0.0000  0.0000  0.0000  0.0000
  o =  1.1008  v =  1.0000  0.0000  0.0000  0.0000  0.0000  0.0000  0.0000  0.0000  0.0000  0.0000      0.0000  0.0000  0.0000  0.0000  0.0000  0.0000  0.0000  0.0000  0.0000  0.0000
  o =  1.1008  v =  0.0000  1.0000  0.0000  0.0000  0.0000  0.0000  0.0000  0.0000  0.0000  0.0000      0.0000  0.0000  0.0000  0.0000  0.0000  0.0000  0.0000  0.0000  0.0000  0.0000
  o =  1.1008  v =  0.0000  0.0000  1.0000  0.0000  0.0000  0.0000  0.0000  0.0000  0.0000  0.0000      0.0000  0.0000  0.0000  0.0000  0.0000  0.0000  0.0000  0.0000  0.0000  0.0000
  o =  1.1008  v =  0.0000  0.0000  0.0000  1.0000  0.0000  0.0000  0.0000  0.0000  0.0000  0.0000      0.0000  0.0000  0.0000  0.0000  0.0000  0.0000  0.0000  0.0000  0.0000  0.0000
  o =  1.1008  v =  0.0000  0.0000  0.0000  0.0000  1.0000  0.0000  0.0000  0.0000  0.0000  0.0000      0.0000  0.0000  0.0000  0.0000  0.0000  0.0000  0.0000  0.0000  0.0000  0.0000
atom =  10  type =  3  l = 2
 
 onsite density matrix
 
spin component  1
 
  1.1008  0.0000  0.0000  0.0000  0.0000
  0.0000  1.1008  0.0000  0.0000  0.0000
  0.0000  0.0000  1.1008  0.0000  0.0000
  0.0000  0.0000  0.0000  1.1008  0.0000
  0.0000  0.0000  0.0000  0.0000  1.1008
 
spin component  2
 
  0.5927  0.0000  0.0000  0.0000  0.0000
  0.0000  0.5927  0.0000  0.0000  0.0000
  0.0000  0.0000  0.5927  0.0000  0.0000
  0.0000  0.0000  0.0000  0.5927  0.0000
  0.0000  0.0000  0.0000  0.0000  0.5927
 
 occupancies and eigenvectors
 
  o =  0.5927  v =  0.0000  0.0000  0.0000  0.0000  0.0000  1.0000  0.0000  0.0000  0.0000  0.0000      0.0000  0.0000  0.0000  0.0000  0.0000  0.0000  0.0000  0.0000  0.0000  0.0000
  o =  0.5927  v =  0.0000  0.0000  0.0000  0.0000  0.0000  0.0000  1.0000  0.0000  0.0000  0.0000      0.0000  0.0000  0.0000  0.0000  0.0000  0.0000  0.0000  0.0000  0.0000  0.0000
  o =  0.5927  v =  0.0000  0.0000  0.0000  0.0000  0.0000  0.0000  0.0000  1.0000  0.0000  0.0000      0.0000  0.0000  0.0000  0.0000  0.0000  0.0000  0.0000  0.0000  0.0000  0.0000
  o =  0.5927  v =  0.0000  0.0000  0.0000  0.0000  0.0000  0.0000  0.0000  0.0000  1.0000  0.0000      0.0000  0.0000  0.0000  0.0000  0.0000  0.0000  0.0000  0.0000  0.0000  0.0000
  o =  0.5927  v =  0.0000  0.0000  0.0000  0.0000  0.0000  0.0000  0.0000  0.0000  0.0000  1.0000      0.0000  0.0000  0.0000  0.0000  0.0000  0.0000  0.0000  0.0000  0.0000  0.0000
  o =  1.1008  v =  1.0000  0.0000  0.0000  0.0000  0.0000  0.0000  0.0000  0.0000  0.0000  0.0000      0.0000  0.0000  0.0000  0.0000  0.0000  0.0000  0.0000  0.0000  0.0000  0.0000
  o =  1.1008  v =  0.0000  1.0000  0.0000  0.0000  0.0000  0.0000  0.0000  0.0000  0.0000  0.0000      0.0000  0.0000  0.0000  0.0000  0.0000  0.0000  0.0000  0.0000  0.0000  0.0000
  o =  1.1008  v =  0.0000  0.0000  1.0000  0.0000  0.0000  0.0000  0.0000  0.0000  0.0000  0.0000      0.0000  0.0000  0.0000  0.0000  0.0000  0.0000  0.0000  0.0000  0.0000  0.0000
  o =  1.1008  v =  0.0000  0.0000  0.0000  1.0000  0.0000  0.0000  0.0000  0.0000  0.0000  0.0000      0.0000  0.0000  0.0000  0.0000  0.0000  0.0000  0.0000  0.0000  0.0000  0.0000
  o =  1.1008  v =  0.0000  0.0000  0.0000  0.0000  1.0000  0.0000  0.0000  0.0000  0.0000  0.0000      0.0000  0.0000  0.0000  0.0000  0.0000  0.0000  0.0000  0.0000  0.0000  0.0000
atom =  11  type =  4  l = 0
 
 onsite density matrix
 
spin component  1
 
  0.8190
 
spin component  2
 
  0.8190
 
 occupancies and eigenvectors
 
  o =  0.8190  v =  1.0000  0.0000      0.0000  0.0000
  o =  0.8190  v =  0.0000  1.0000      0.0000  0.0000
atom =  12  type =  4  l = 0
 
 onsite density matrix
 
spin component  1
 
  0.8190
 
spin component  2
 
  0.8190
 
 occupancies and eigenvectors
 
  o =  0.8190  v =  1.0000  0.0000      0.0000  0.0000
  o =  0.8190  v =  0.0000  1.0000      0.0000  0.0000
atom =  13  type =  4  l = 0
 
 onsite density matrix
 
spin component  1
 
  0.8190
 
spin component  2
 
  0.8190
 
 occupancies and eigenvectors
 
  o =  0.8190  v =  1.0000  0.0000      0.0000  0.0000
  o =  0.8190  v =  0.0000  1.0000      0.0000  0.0000
atom =  14  type =  4  l = 0
 
 onsite density matrix
 
spin component  1
 
  0.8190
 
spin component  2
 
  0.8190
 
 occupancies and eigenvectors
 
  o =  0.8190  v =  1.0000  0.0000      0.0000  0.0000
  o =  0.8190  v =  0.0000  1.0000      0.0000  0.0000
atom =  15  type =  4  l = 0
 
 onsite density matrix
 
spin component  1
 
  0.8190
 
spin component  2
 
  0.8190
 
 occupancies and eigenvectors
 
  o =  0.8190  v =  1.0000  0.0000      0.0000  0.0000
  o =  0.8190  v =  0.0000  1.0000      0.0000  0.0000
atom =  16  type =  4  l = 0
 
 onsite density matrix
 
spin component  1
 
  0.8190
 
spin component  2
 
  0.8190
 
 occupancies and eigenvectors
 
  o =  0.8190  v =  1.0000  0.0000      0.0000  0.0000
  o =  0.8190  v =  0.0000  1.0000      0.0000  0.0000
atom =  17  type =  4  l = 0
 
 onsite density matrix
 
spin component  1
 
  0.8190
 
spin component  2
 
  0.8190
 
 occupancies and eigenvectors
 
  o =  0.8190  v =  1.0000  0.0000      0.0000  0.0000
  o =  0.8190  v =  0.0000  1.0000      0.0000  0.0000
atom =  18  type =  4  l = 0
 
 onsite density matrix
 
spin component  1
 
  0.8190
 
spin component  2
 
  0.8190
 
 occupancies and eigenvectors
 
  o =  0.8190  v =  1.0000  0.0000      0.0000  0.0000
  o =  0.8190  v =  0.0000  1.0000      0.0000  0.0000
atom =  19  type =  4  l = 0
 
 onsite density matrix
 
spin component  1
 
  0.8190
 
spin component  2
 
  0.8190
 
 occupancies and eigenvectors
 
  o =  0.8190  v =  1.0000  0.0000      0.0000  0.0000
  o =  0.8190  v =  0.0000  1.0000      0.0000  0.0000
atom =  20  type =  4  l = 0
 
 onsite density matrix
 
spin component  1
 
  0.8190
 
spin component  2
 
  0.8190
 
 occupancies and eigenvectors
 
  o =  0.8190  v =  1.0000  0.0000      0.0000  0.0000
  o =  0.8190  v =  0.0000  1.0000      0.0000  0.0000
atom =  21  type =  4  l = 0
 
 onsite density matrix
 
spin component  1
 
  0.8190
 
spin component  2
 
  0.8190
 
 occupancies and eigenvectors
 
  o =  0.8190  v =  1.0000  0.0000      0.0000  0.0000
  o =  0.8190  v =  0.0000  1.0000      0.0000  0.0000
atom =  22  type =  4  l = 0
 
 onsite density matrix
 
spin component  1
 
  0.8190
 
spin component  2
 
  0.8190
 
 occupancies and eigenvectors
 
  o =  0.8190  v =  1.0000  0.0000      0.0000  0.0000
  o =  0.8190  v =  0.0000  1.0000      0.0000  0.0000
atom =  23  type =  4  l = 0
 
 onsite density matrix
 
spin component  1
 
  0.8190
 
spin component  2
 
  0.8190
 
 occupancies and eigenvectors
 
  o =  0.8190  v =  1.0000  0.0000      0.0000  0.0000
  o =  0.8190  v =  0.0000  1.0000      0.0000  0.0000
atom =  24  type =  4  l = 0
 
 onsite density matrix
 
spin component  1
 
  0.8190
 
spin component  2
 
  0.8190
 
 occupancies and eigenvectors
 
  o =  0.8190  v =  1.0000  0.0000      0.0000  0.0000
  o =  0.8190  v =  0.0000  1.0000      0.0000  0.0000
atom =  25  type =  4  l = 0
 
 onsite density matrix
 
spin component  1
 
  0.8190
 
spin component  2
 
  0.8190
 
 occupancies and eigenvectors
 
  o =  0.8190  v =  1.0000  0.0000      0.0000  0.0000
  o =  0.8190  v =  0.0000  1.0000      0.0000  0.0000
     EDDAV:  cpu time    2.2066: real time    2.2177
 BZINTS: Fermi energy: 30.691675;186.000000 electrons
         Band energy:2733.899878;  BLOECHL correction: -0.153088
       DOS:  cpu time    0.0181: real time    0.0182
    --------------------------------------------
      LOOP:  cpu time    2.3028: real time    2.3171

 eigenvalue-minimisations  :  4648
 total energy-change (2. order) : 0.2929932E+04  (-0.6607904E+04)
 number of electron     186.0000000 magnetization      18.0000000
 augmentation part      186.0000000 magnetization      18.0000000

 Free energy of the ion-electron system (eV)
  ---------------------------------------------------
  alpha Z        PSCENC =       814.05594655
  Ewald energy   TEWEN  =    -12570.82790954
  -Hartree energ DENC   =     -2832.14736002
  -exchange      EXHF   =         0.00000000
  -V(xc)+E(xc)   XCENC  =       606.75711008
  PAW double counting   =     11556.14676195   -11598.79573466
  entropy T*S    EENTRO =         0.00000000
  eigenvalues    EBANDS =      2733.89987775
  atomic energy  EATOM  =     14220.84357809
  Solvation  Ediel_sol  =         0.00000000
  ---------------------------------------------------
  free energy    TOTEN  =      2929.93227021 eV

  energy without entropy =     2929.93227021  energy(sigma->0) =     2929.93227021


--------------------------------------------------------------------------------------------------------




--------------------------------------- Iteration      1(   2)  ---------------------------------------


     EDDAV:  cpu time    2.2672: real time    2.2748
 BZINTS: Fermi energy: 16.240184;186.000000 electrons
         Band energy: 788.163091;  BLOECHL correction: -0.021170
       DOS:  cpu time    0.0188: real time    0.0188
    --------------------------------------------
      LOOP:  cpu time    2.2860: real time    2.2937

 eigenvalue-minimisations  :  4872
 total energy-change (2. order) :-0.1945737E+04  (-0.1754311E+04)
 number of electron     186.0000000 magnetization      18.0000000
 augmentation part      186.0000000 magnetization      18.0000000

 Free energy of the ion-electron system (eV)
  ---------------------------------------------------
  alpha Z        PSCENC =       814.05594655
  Ewald energy   TEWEN  =    -12570.82790954
  -Hartree energ DENC   =     -2832.14736002
  -exchange      EXHF   =         0.00000000
  -V(xc)+E(xc)   XCENC  =       606.75711008
  PAW double counting   =     11556.14676195   -11598.79573466
  entropy T*S    EENTRO =         0.00000000
  eigenvalues    EBANDS =       788.16309145
  atomic energy  EATOM  =     14220.84357809
  Solvation  Ediel_sol  =         0.00000000
  ---------------------------------------------------
  free energy    TOTEN  =       984.19548391 eV

  energy without entropy =      984.19548391  energy(sigma->0) =      984.19548391


--------------------------------------------------------------------------------------------------------




--------------------------------------- Iteration      1(   3)  ---------------------------------------


     EDDAV:  cpu time    2.3112: real time    2.3193
 BZINTS: Fermi energy: 12.060847;186.000000 electrons
         Band energy:  -1.106296;  BLOECHL correction: -0.023346
       DOS:  cpu time    0.0160: real time    0.0160
    --------------------------------------------
      LOOP:  cpu time    2.3272: real time    2.3353

 eigenvalue-minimisations  :  4952
 total energy-change (2. order) :-0.7892694E+03  (-0.7172540E+03)
 number of electron     186.0000000 magnetization      18.0000000
 augmentation part      186.0000000 magnetization      18.0000000

 Free energy of the ion-electron system (eV)
  ---------------------------------------------------
  alpha Z        PSCENC =       814.05594655
  Ewald energy   TEWEN  =    -12570.82790954
  -Hartree energ DENC   =     -2832.14736002
  -exchange      EXHF   =         0.00000000
  -V(xc)+E(xc)   XCENC  =       606.75711008
  PAW double counting   =     11556.14676195   -11598.79573466
  entropy T*S    EENTRO =         0.00000000
  eigenvalues    EBANDS =        -1.10629614
  atomic energy  EATOM  =     14220.84357809
  Solvation  Ediel_sol  =         0.00000000
  ---------------------------------------------------
  free energy    TOTEN  =       194.92609632 eV

  energy without entropy =      194.92609632  energy(sigma->0) =      194.92609632


--------------------------------------------------------------------------------------------------------




--------------------------------------- Iteration      1(   4)  ---------------------------------------


     EDDAV:  cpu time    3.0930: real time    3.1034
 BZINTS: Fermi energy: 11.374904;186.000000 electrons
         Band energy:-338.765804;  BLOECHL correction: -0.019071
       DOS:  cpu time    0.0178: real time    0.0181
    --------------------------------------------
      LOOP:  cpu time    3.1108: real time    3.1215

 eigenvalue-minimisations  :  7080
 total energy-change (2. order) :-0.3376595E+03  (-0.3205072E+03)
 number of electron     186.0000000 magnetization      18.0000000
 augmentation part      186.0000000 magnetization      18.0000000

 Free energy of the ion-electron system (eV)
  ---------------------------------------------------
  alpha Z        PSCENC =       814.05594655
  Ewald energy   TEWEN  =    -12570.82790954
  -Hartree energ DENC   =     -2832.14736002
  -exchange      EXHF   =         0.00000000
  -V(xc)+E(xc)   XCENC  =       606.75711008
  PAW double counting   =     11556.14676195   -11598.79573466
  entropy T*S    EENTRO =         0.00000000
  eigenvalues    EBANDS =      -338.76580387
  atomic energy  EATOM  =     14220.84357809
  Solvation  Ediel_sol  =         0.00000000
  ---------------------------------------------------
  free energy    TOTEN  =      -142.73341140 eV

  energy without entropy =     -142.73341140  energy(sigma->0) =     -142.73341140


--------------------------------------------------------------------------------------------------------




--------------------------------------- Iteration      1(   5)  ---------------------------------------


     EDDAV:  cpu time    3.3930: real time    3.4093
 BZINTS: Fermi energy: 10.877071;186.000000 electrons
         Band energy:-408.272192;  BLOECHL correction: -0.072236
       DOS:  cpu time    0.0180: real time    0.0181
    CHARGE:  cpu time    0.1138: real time    0.1141
    MIXING:  cpu time    0.0027: real time    0.0028
    --------------------------------------------
      LOOP:  cpu time    3.5275: real time    3.5443

 eigenvalue-minimisations  :  7896
 total energy-change (2. order) :-0.6950639E+02  (-0.6734515E+02)
 number of electron     186.0000062 magnetization      16.8763826
 augmentation part       22.3569111 magnetization      12.3172344

 Broyden mixing:
  rms(total) = 0.66679E+01    rms(broyden)= 0.66675E+01
  rms(prec ) = 0.72574E+01
  weight for this iteration     100.00

 Free energy of the ion-electron system (eV)
  ---------------------------------------------------
  alpha Z        PSCENC =       814.05594655
  Ewald energy   TEWEN  =    -12570.82790954
  -Hartree energ DENC   =     -2832.14736002
  -exchange      EXHF   =         0.00000000
  -V(xc)+E(xc)   XCENC  =       606.75711008
  PAW double counting   =     11556.14676195   -11598.79573466
  entropy T*S    EENTRO =         0.00000000
  eigenvalues    EBANDS =      -408.27219197
  atomic energy  EATOM  =     14220.84357809
  Solvation  Ediel_sol  =         0.00000000
  ---------------------------------------------------
  free energy    TOTEN  =      -212.23979951 eV

  energy without entropy =     -212.23979951  energy(sigma->0) =     -212.23979951


--------------------------------------------------------------------------------------------------------




--------------------------------------- Iteration      1(   6)  ---------------------------------------


    POTLOK:  cpu time    0.0640: real time    0.0649
    SETDIJ:  cpu time    0.0110: real time    0.0110
atom =   1  type =  1  l = 0
 
 onsite density matrix
 
spin component  1
 
  1.0563
 
spin component  2
 
  1.0563
 
 occupancies and eigenvectors
 
  o =  1.0563  v =  1.0000  0.0000      0.0000  0.0000
  o =  1.0563  v =  0.0000  1.0000      0.0000  0.0000
atom =   2  type =  1  l = 0
 
 onsite density matrix
 
spin component  1
 
  1.0563
 
spin component  2
 
  1.0563
 
 occupancies and eigenvectors
 
  o =  1.0563  v =  1.0000  0.0000      0.0000  0.0000
  o =  1.0563  v =  0.0000  1.0000      0.0000  0.0000
atom =   3  type =  1  l = 0
 
 onsite density matrix
 
spin component  1
 
  1.0571
 
spin component  2
 
  1.0571
 
 occupancies and eigenvectors
 
  o =  1.0571  v =  0.0000  1.0000      0.0000  0.0000
  o =  1.0571  v =  1.0000  0.0000      0.0000  0.0000
atom =   4  type =  1  l = 0
 
 onsite density matrix
 
spin component  1
 
  1.0564
 
spin component  2
 
  1.0564
 
 occupancies and eigenvectors
 
  o =  1.0564  v =  0.0000  1.0000      0.0000  0.0000
  o =  1.0564  v =  1.0000  0.0000      0.0000  0.0000
atom =   5  type =  1  l = 0
 
 onsite density matrix
 
spin component  1
 
  1.0571
 
spin component  2
 
  1.0571
 
 occupancies and eigenvectors
 
  o =  1.0571  v =  0.0000  1.0000      0.0000  0.0000
  o =  1.0571  v =  1.0000  0.0000      0.0000  0.0000
atom =   6  type =  2  l = 2
 
 onsite density matrix
 
spin component  1
 
  0.9458  0.0000  0.0000 -0.0002  0.0000
  0.0000  0.9535 -0.0032  0.0000  0.0056
  0.0000 -0.0032  0.3649  0.0000  0.0037
 -0.0002  0.0000  0.0000  0.9458  0.0000
  0.0000  0.0056  0.0037  0.0000  0.3607
 
spin component  2
 
  0.0303  0.0000  0.0000 -0.0002  0.0000
  0.0000  0.0256  0.0014  0.0000 -0.0025
  0.0000  0.0014  0.4316  0.0000 -0.0042
 -0.0002  0.0000  0.0000  0.0303  0.0000
  0.0000 -0.0025 -0.0042  0.0000  0.4364
 
 occupancies and eigenvectors
 
  o =  0.0256  v =  0.0000  0.0000  0.0000  0.0000  0.0000  0.0000 -1.0000  0.0035  0.0000 -0.0060      0.0000  0.0000  0.0000  0.0000  0.0000  0.0000  0.0000  0.0000  0.0000  0.0000
  o =  0.0301  v =  0.0000  0.0000  0.0000  0.0000  0.0000 -0.7071 -0.0000  0.0000 -0.7071 -0.0000      0.0000  0.0000  0.0000  0.0000  0.0000  0.0000  0.0000  0.0000  0.0000  0.0000
  o =  0.0305  v =  0.0000  0.0000  0.0000  0.0000  0.0000 -0.7071  0.0000 -0.0000  0.7071  0.0000      0.0000  0.0000  0.0000  0.0000  0.0000  0.0000  0.0000  0.0000  0.0000  0.0000
  o =  0.3585  v =  0.0000  0.0109  0.5000  0.0000 -0.8660  0.0000  0.0000  0.0000  0.0000  0.0000      0.0000  0.0000  0.0000  0.0000  0.0000  0.0000  0.0000  0.0000  0.0000  0.0000
  o =  0.3670  v =  0.0000  0.0000  0.8660  0.0000  0.5000  0.0000  0.0000  0.0000  0.0000  0.0000      0.0000  0.0000  0.0000  0.0000  0.0000  0.0000  0.0000  0.0000  0.0000  0.0000
  o =  0.4292  v =  0.0000  0.0000  0.0000  0.0000  0.0000  0.0000  0.0000 -0.8660  0.0000 -0.5000      0.0000  0.0000  0.0000  0.0000  0.0000  0.0000  0.0000  0.0000  0.0000  0.0000
  o =  0.4389  v =  0.0000  0.0000  0.0000  0.0000  0.0000  0.0000 -0.0069 -0.5000 -0.0000  0.8660      0.0000  0.0000  0.0000  0.0000  0.0000  0.0000  0.0000  0.0000  0.0000  0.0000
  o =  0.9456  v = -0.7071  0.0000  0.0000 -0.7071  0.0000  0.0000  0.0000  0.0000  0.0000  0.0000      0.0000  0.0000  0.0000  0.0000  0.0000  0.0000  0.0000  0.0000  0.0000  0.0000
  o =  0.9460  v = -0.7071  0.0000  0.0000  0.7071  0.0000  0.0000  0.0000  0.0000  0.0000  0.0000      0.0000  0.0000  0.0000  0.0000  0.0000  0.0000  0.0000  0.0000  0.0000  0.0000
  o =  0.9535  v =  0.0000  0.9999 -0.0054  0.0000  0.0094  0.0000  0.0000  0.0000  0.0000  0.0000      0.0000  0.0000  0.0000  0.0000  0.0000  0.0000  0.0000  0.0000  0.0000  0.0000
atom =   7  type =  2  l = 2
 
 onsite density matrix
 
spin component  1
 
  0.9540  0.0000  0.0000 -0.0032  0.0000
  0.0000  0.9443  0.0017  0.0000 -0.0029
  0.0000  0.0017  0.3572  0.0000 -0.0116
 -0.0032  0.0000  0.0000  0.9540  0.0000
  0.0000 -0.0029 -0.0116  0.0000  0.3707
 
spin component  2
 
  0.0291  0.0000  0.0000  0.0013  0.0000
  0.0000  0.0377 -0.0012  0.0000  0.0021
  0.0000 -0.0012  0.4427  0.0000  0.0079
  0.0013  0.0000  0.0000  0.0291  0.0000
  0.0000  0.0021  0.0079  0.0000  0.4336
 
 occupancies and eigenvectors
 
  o =  0.0278  v =  0.0000  0.0000  0.0000  0.0000  0.0000 -0.7071  0.0000  0.0000  0.7071  0.0000      0.0000  0.0000  0.0000  0.0000  0.0000  0.0000  0.0000  0.0000  0.0000  0.0000
  o =  0.0304  v =  0.0000  0.0000  0.0000  0.0000  0.0000 -0.7071  0.0000  0.0000 -0.7071  0.0000      0.0000  0.0000  0.0000  0.0000  0.0000  0.0000  0.0000  0.0000  0.0000  0.0000
  o =  0.0377  v =  0.0000  0.0000  0.0000  0.0000  0.0000  0.0000  1.0000  0.0031  0.0000 -0.0054      0.0000  0.0000  0.0000  0.0000  0.0000  0.0000  0.0000  0.0000  0.0000  0.0000
  o =  0.3505  v =  0.0000 -0.0000  0.8660  0.0000  0.5000  0.0000  0.0000  0.0000  0.0000  0.0000      0.0000  0.0000  0.0000  0.0000  0.0000  0.0000  0.0000  0.0000  0.0000  0.0000
  o =  0.3774  v =  0.0000 -0.0059  0.5000  0.0000 -0.8660  0.0000  0.0000  0.0000  0.0000  0.0000      0.0000  0.0000  0.0000  0.0000  0.0000  0.0000  0.0000  0.0000  0.0000  0.0000
  o =  0.4291  v =  0.0000  0.0000  0.0000  0.0000  0.0000  0.0000  0.0062 -0.5000  0.0000  0.8660      0.0000  0.0000  0.0000  0.0000  0.0000  0.0000  0.0000  0.0000  0.0000  0.0000
  o =  0.4473  v =  0.0000  0.0000  0.0000  0.0000  0.0000  0.0000 -0.0000 -0.8660  0.0000 -0.5000      0.0000  0.0000  0.0000  0.0000  0.0000  0.0000  0.0000  0.0000  0.0000  0.0000
  o =  0.9443  v =  0.0000 -1.0000 -0.0029  0.0000  0.0051  0.0000  0.0000  0.0000  0.0000  0.0000      0.0000  0.0000  0.0000  0.0000  0.0000  0.0000  0.0000  0.0000  0.0000  0.0000
  o =  0.9509  v = -0.7071 -0.0000 -0.0000 -0.7071  0.0000  0.0000  0.0000  0.0000  0.0000  0.0000      0.0000  0.0000  0.0000  0.0000  0.0000  0.0000  0.0000  0.0000  0.0000  0.0000
  o =  0.9572  v = -0.7071  0.0000  0.0000  0.7071 -0.0000  0.0000  0.0000  0.0000  0.0000  0.0000      0.0000  0.0000  0.0000  0.0000  0.0000  0.0000  0.0000  0.0000  0.0000  0.0000
atom =   8  type =  2  l = 2
 
 onsite density matrix
 
spin component  1
 
  0.9540  0.0000  0.0000 -0.0032  0.0000
  0.0000  0.9443  0.0017  0.0000 -0.0029
  0.0000  0.0017  0.3572  0.0000 -0.0116
 -0.0032  0.0000  0.0000  0.9540  0.0000
  0.0000 -0.0029 -0.0116  0.0000  0.3707
 
spin component  2
 
  0.0291  0.0000  0.0000  0.0013  0.0000
  0.0000  0.0377 -0.0012  0.0000  0.0021
  0.0000 -0.0012  0.4427  0.0000  0.0079
  0.0013  0.0000  0.0000  0.0291  0.0000
  0.0000  0.0021  0.0079  0.0000  0.4336
 
 occupancies and eigenvectors
 
  o =  0.0278  v =  0.0000  0.0000  0.0000  0.0000  0.0000 -0.7071  0.0000  0.0000  0.7071  0.0000      0.0000  0.0000  0.0000  0.0000  0.0000  0.0000  0.0000  0.0000  0.0000  0.0000
  o =  0.0304  v =  0.0000  0.0000  0.0000  0.0000  0.0000 -0.7071  0.0000  0.0000 -0.7071  0.0000      0.0000  0.0000  0.0000  0.0000  0.0000  0.0000  0.0000  0.0000  0.0000  0.0000
  o =  0.0377  v =  0.0000  0.0000  0.0000  0.0000  0.0000  0.0000  1.0000  0.0031  0.0000 -0.0054      0.0000  0.0000  0.0000  0.0000  0.0000  0.0000  0.0000  0.0000  0.0000  0.0000
  o =  0.3505  v =  0.0000 -0.0000  0.8660  0.0000  0.5000  0.0000  0.0000  0.0000  0.0000  0.0000      0.0000  0.0000  0.0000  0.0000  0.0000  0.0000  0.0000  0.0000  0.0000  0.0000
  o =  0.3774  v =  0.0000 -0.0059  0.5000  0.0000 -0.8660  0.0000  0.0000  0.0000  0.0000  0.0000      0.0000  0.0000  0.0000  0.0000  0.0000  0.0000  0.0000  0.0000  0.0000  0.0000
  o =  0.4291  v =  0.0000  0.0000  0.0000  0.0000  0.0000  0.0000  0.0062 -0.5000  0.0000  0.8660      0.0000  0.0000  0.0000  0.0000  0.0000  0.0000  0.0000  0.0000  0.0000  0.0000
  o =  0.4473  v =  0.0000  0.0000  0.0000  0.0000  0.0000  0.0000 -0.0000 -0.8660  0.0000 -0.5000      0.0000  0.0000  0.0000  0.0000  0.0000  0.0000  0.0000  0.0000  0.0000  0.0000
  o =  0.9443  v =  0.0000  1.0000  0.0029  0.0000 -0.0051  0.0000  0.0000  0.0000  0.0000  0.0000      0.0000  0.0000  0.0000  0.0000  0.0000  0.0000  0.0000  0.0000  0.0000  0.0000
  o =  0.9509  v = -0.7071  0.0000  0.0000 -0.7071  0.0000  0.0000  0.0000  0.0000  0.0000  0.0000      0.0000  0.0000  0.0000  0.0000  0.0000  0.0000  0.0000  0.0000  0.0000  0.0000
  o =  0.9572  v = -0.7071  0.0000  0.0000  0.7071  0.0000  0.0000  0.0000  0.0000  0.0000  0.0000      0.0000  0.0000  0.0000  0.0000  0.0000  0.0000  0.0000  0.0000  0.0000  0.0000
atom =   9  type =  3  l = 2
 
 onsite density matrix
 
spin component  1
 
  0.9102  0.0000  0.0000 -0.0015  0.0000
  0.0000  0.8936 -0.0042  0.0000  0.0073
  0.0000 -0.0042  1.3154  0.0000 -0.0045
 -0.0015  0.0000  0.0000  0.9102  0.0000
  0.0000  0.0073 -0.0045  0.0000  1.3207
 
spin component  2
 
  0.7846  0.0000  0.0000  0.0009  0.0000
  0.0000  0.8117  0.0069  0.0000 -0.0120
  0.0000  0.0069  0.1887  0.0000  0.0007
  0.0009  0.0000  0.0000  0.7846  0.0000
  0.0000 -0.0120  0.0007  0.0000  0.1879
 
 occupancies and eigenvectors
 
  o =  0.1872  v =  0.0000  0.0000  0.0000  0.0000  0.0000 -0.0000  0.0222 -0.4999  0.0000  0.8658      0.0000  0.0000  0.0000  0.0000  0.0000  0.0000  0.0000  0.0000  0.0000  0.0000
  o =  0.1891  v =  0.0000  0.0000  0.0000  0.0000  0.0000  0.0000 -0.0000  0.8660 -0.0000  0.5000      0.0000  0.0000  0.0000  0.0000  0.0000  0.0000  0.0000  0.0000  0.0000  0.0000
  o =  0.7837  v =  0.0000  0.0000  0.0000  0.0000  0.0000 -0.7071  0.0000  0.0000  0.7071 -0.0000      0.0000  0.0000  0.0000  0.0000  0.0000  0.0000  0.0000  0.0000  0.0000  0.0000
  o =  0.7854  v =  0.0000  0.0000  0.0000  0.0000  0.0000 -0.7071 -0.0000 -0.0000 -0.7071  0.0000      0.0000  0.0000  0.0000  0.0000  0.0000  0.0000  0.0000  0.0000  0.0000  0.0000
[...]
  0.000   0.000   0.000   0.000  -0.000   0.000   0.000   0.000   0.000   0.000   0.000   0.000   0.000   0.000   0.000   0.000
  0.000  -0.000   0.000   0.000   0.000   0.000  -0.000   0.000   0.000   0.000   0.000   0.000   0.000   0.000  -0.000  -0.000
  0.000  -0.000   0.000   0.000   0.000  -0.000   0.000   0.000   0.000   0.000  -0.000   0.000  -0.000   0.000  -0.000   0.000
  0.000   0.000   0.000   0.000   0.000   0.000   0.000   0.000  -0.000   0.000   0.000  -0.000   0.000   0.000   0.000   0.000
  0.000   0.000   0.000   0.000   0.000   0.000   0.000  -0.000  -0.002   0.000   0.000  -0.003   0.000   0.002   0.000   0.000
 -0.000  -0.001   0.000   0.000   0.000   0.000   0.000   0.000   0.000  -0.003   0.002   0.000  -0.003   0.000   0.002  -0.001
  0.000  -0.000  -0.000   0.000   0.000   0.000  -0.000   0.000   0.000   0.002   0.006   0.000   0.000   0.000  -0.001  -0.002
  0.000   0.000   0.000   0.000   0.000   0.000   0.000  -0.000  -0.003   0.000   0.000  -0.002   0.000   0.001   0.000   0.000
 -0.000   0.001  -0.000   0.000   0.000   0.000  -0.000   0.000   0.000  -0.003   0.000   0.000   0.005   0.000   0.001  -0.000
  0.000   0.000   0.000   0.000   0.000   0.000   0.000   0.000   0.002   0.000   0.000   0.001   0.000  -0.001   0.000   0.000
  0.000   0.001  -0.000  -0.000   0.000  -0.000  -0.000   0.000   0.000   0.002  -0.001   0.000   0.001   0.000  -0.001   0.000
 -0.000   0.000  -0.000   0.000   0.000  -0.000   0.000   0.000   0.000  -0.001  -0.002   0.000  -0.000   0.000   0.000   0.001
  0.000   0.000   0.000   0.000   0.000   0.000   0.000   0.000   0.001   0.000   0.000   0.002   0.000  -0.001   0.000   0.000
  0.000  -0.000  -0.000   0.000   0.000  -0.000   0.000   0.000   0.000   0.001  -0.000   0.000  -0.002   0.000  -0.000   0.000
 -0.000  -0.000  -0.000   0.000   0.000   0.000   0.000   0.000   0.000  -0.001  -0.001   0.000   0.002   0.000   0.000   0.000
  0.000   0.000   0.000   0.000  -0.000   0.000   0.000   0.000  -0.001   0.000   0.000  -0.001   0.000   0.000   0.000   0.000
 -0.000  -0.001  -0.000  -0.000   0.000   0.000   0.000   0.000   0.000   0.000   0.002   0.000  -0.000   0.000  -0.000  -0.001
  0.000   0.001   0.000   0.000   0.000  -0.000  -0.000   0.000   0.000   0.001   0.001   0.000   0.000   0.000  -0.000  -0.000
  0.000   0.000   0.000   0.000   0.000   0.000   0.000   0.000  -0.002   0.000   0.000   0.000   0.000   0.001   0.000   0.000
  0.000   0.001   0.000  -0.000   0.000   0.000  -0.000   0.000   0.000  -0.001   0.000   0.000   0.003   0.000   0.000  -0.000
  0.000   0.000   0.000   0.000  -0.000   0.000   0.000  -0.000   0.000   0.000   0.000   0.002   0.000  -0.000   0.000   0.000
  0.000   0.000   0.000   0.000   0.000  -0.000  -0.000   0.000   0.000   0.002   0.002   0.000  -0.003   0.000  -0.001  -0.001
  0.000   0.000   0.000   0.000   0.000   0.000   0.000  -0.000   0.002   0.000   0.000   0.002   0.000  -0.001   0.000   0.000
  0.000   0.002   0.000   0.000   0.000  -0.000   0.000   0.000   0.000  -0.000  -0.004   0.000   0.001   0.000   0.000   0.002
 -0.000  -0.001  -0.000  -0.000   0.000   0.000   0.000   0.000   0.000  -0.002  -0.002   0.000  -0.000   0.000   0.001   0.001
  0.000   0.000   0.000   0.000  -0.000   0.000   0.000  -0.000   0.004   0.000   0.000  -0.001   0.000  -0.001   0.000   0.000
 -0.000  -0.001   0.000  -0.000   0.000  -0.000   0.000   0.000   0.000   0.002  -0.000   0.000  -0.005   0.000  -0.001   0.000
  0.000   0.000   0.000   0.000   0.000   0.000   0.000   0.000   0.000   0.000   0.000  -0.003   0.000  -0.000   0.000   0.000


------------------------ aborting loop because EDIFF is reached ----------------------------------------


 


 total charge     
 
# of ion       s       p       d       f       tot
--------------------------------------------------
    1        2.001   5.694   0.496   0.189   8.381
    2        2.001   5.694   0.496   0.189   8.381
    3        2.002   5.698   0.504   0.196   8.400
    4        2.000   5.701   0.495   0.194   8.390
    5        2.002   5.698   0.504   0.196   8.400
    6        0.317   0.479   4.867   0.000   5.663
    7        0.337   0.517   4.870   0.000   5.724
    8        0.337   0.517   4.870   0.000   5.724
    9        0.407   0.596   8.334   0.000   9.337
   10        0.407   0.596   8.334   0.000   9.337
   11        1.563   3.455   0.000   0.000   5.018
   12        1.563   3.455   0.000   0.000   5.018
   13        1.563   3.451   0.000   0.000   5.013
   14        1.557   3.462   0.000   0.000   5.019
   15        1.563   3.451   0.000   0.000   5.013
   16        1.563   3.453   0.000   0.000   5.016
   17        1.563   3.453   0.000   0.000   5.016
   18        1.563   3.451   0.000   0.000   5.014
   19        1.557   3.458   0.000   0.000   5.014
   20        1.563   3.451   0.000   0.000   5.014
   21        1.565   3.453   0.000   0.000   5.018
   22        1.564   3.449   0.000   0.000   5.013
   23        1.565   3.453   0.000   0.000   5.018
   24        1.558   3.464   0.000   0.000   5.022
   25        1.558   3.464   0.000   0.000   5.022
--------------------------------------------------
tot         35.237  83.013  33.770   0.964 152.983

 


 magnetization (x)
 
# of ion       s       p       d       f       tot
--------------------------------------------------
    1        0.000  -0.000   0.002   0.002   0.003
    2        0.000  -0.000   0.002   0.002   0.003
    3        0.001   0.001   0.011   0.006   0.018
    4        0.001   0.001   0.014   0.007   0.023
    5        0.001   0.001   0.011   0.006   0.018
    6        0.021   0.019   3.651   0.000   3.691
    7        0.024   0.023   3.493   0.000   3.540
    8        0.024   0.023   3.493   0.000   3.540
    9        0.015   0.013   1.627   0.000   1.655
   10        0.015   0.013   1.627   0.000   1.655
   11        0.004  -0.042   0.000   0.000  -0.039
   12        0.004  -0.042   0.000   0.000  -0.039
   13        0.006  -0.034   0.000   0.000  -0.029
   14        0.007   0.026   0.000   0.000   0.033
   15        0.006  -0.034   0.000   0.000  -0.029
   16        0.004  -0.044   0.000   0.000  -0.040
   17        0.004  -0.044   0.000   0.000  -0.040
   18        0.006  -0.034   0.000   0.000  -0.028
   19        0.007   0.021   0.000   0.000   0.028
   20        0.006  -0.034   0.000   0.000  -0.028
   21        0.004  -0.058   0.000   0.000  -0.054
   22        0.004  -0.053   0.000   0.000  -0.048
   23        0.004  -0.058   0.000   0.000  -0.054
   24        0.006  -0.009   0.000   0.000  -0.003
   25        0.006  -0.009   0.000   0.000  -0.003
--------------------------------------------------
tot          0.180  -0.356  13.930   0.022  13.775

 
    CHARGE:  cpu time    0.1109: real time    0.1112
    FORLOC:  cpu time    0.0085: real time    0.0085
    FORNL :  cpu time    0.6210: real time    0.6232
    STRESS:  cpu time    1.8942: real time    1.9006
    FORCOR:  cpu time    0.0704: real time    0.0719
    FORHAR:  cpu time    0.0150: real time    0.0151
    MIXING:  cpu time    0.0042: real time    0.0042
    OFIELD:  cpu time    0.0001: real time    0.0002

  FORCE on cell =-STRESS in cart. coord.  units (eV):
  Direction    XX          YY          ZZ          XY          YZ          ZX
  --------------------------------------------------------------------------------------
  Alpha Z   814.05595   814.05595   814.05595
  Ewald   -4024.21978 -4273.32153 -4273.32153     0.00000   -87.90685     0.00000
  Hartree  1101.96553   901.18943   901.18942    -0.00000   -96.15989    -0.00000
  E(xc)    -861.78625  -861.97165  -861.97166     0.00000     0.06185    -0.00000
  Local    -903.75625  -456.87403  -456.87363     0.00000   184.09506     0.00000
  n-local   340.36726   340.05334   340.00824    -0.27299    -0.76128     0.33021
  augment   333.83388   334.71546   334.71542    -0.00000    -0.04239     0.00000
  Kinetic  3200.14234  3201.76751  3202.02491     0.25979     0.88164    -0.49582
  Fock        0.00000     0.00000     0.00000     0.00000     0.00000     0.00000
  -------------------------------------------------------------------------------------
  Total       0.60269    -0.27921    -0.27921     0.00000     0.17297     0.00000
  in kB       3.26863    -1.51426    -1.51426     0.00000     0.93807     0.00000
  external pressure =        0.08 kB  Pullay stress =        0.00 kB


 VOLUME and BASIS-vectors are now :
 -----------------------------------------------------------------------------
  energy-cutoff  :      520.00
  volume of cell :      295.42
      direct lattice vectors                 reciprocal lattice vectors
     3.877714822  0.000000000  0.000000000     0.257883843  0.000000000  0.000000000
     0.000000000  3.899040468 -3.899040468     0.000000000  0.153826494 -0.102646864
     0.000000000  7.819991670 11.719032138     0.000000000  0.051179630  0.051179630

  length of vectors
     3.877714822  5.514075910 14.088576364     0.257883843  0.184929632  0.072378926


 FORCES acting on ions
    electron-ion (+dipol)            ewald-force                    non-local-force                 convergence-correction
 -----------------------------------------------------------------------------------------------
   -.168E-14 0.122E+03 0.122E+03   0.140E-13 -.120E+03 -.120E+03   0.000E+00 -.121E+01 -.121E+01   0.522E-14 -.102E+00 -.102E+00
   0.235E-14 -.122E+03 -.122E+03   -.258E-13 0.120E+03 0.120E+03   0.000E+00 0.121E+01 0.121E+01   -.214E-14 0.102E+00 0.102E+00
   -.427E-14 -.157E+03 -.157E+03   0.276E-13 0.155E+03 0.155E+03   0.000E+00 0.123E+01 0.123E+01   0.535E-14 0.152E+00 0.152E+00
   -.810E-14 -.589E-05 -.928E-05   -.239E-13 0.413E-10 0.383E-10   0.000E+00 -.122E-18 -.542E-19   0.344E-14 -.246E-05 0.299E-05
   -.991E-14 0.157E+03 0.157E+03   -.434E-13 -.155E+03 -.155E+03   0.000E+00 -.123E+01 -.123E+01   0.743E-14 -.152E+00 -.152E+00
   0.672E-13 -.252E-04 -.149E-04   0.567E-14 0.872E-11 0.367E-10   0.000E+00 -.847E-20 0.102E-19   0.112E-13 0.211E-05 0.211E-05
   0.605E-13 0.568E+02 0.568E+02   -.355E-13 -.561E+02 -.561E+02   0.000E+00 -.610E+00 -.610E+00   0.657E-14 -.838E-01 -.839E-01
   0.555E-13 -.568E+02 -.568E+02   0.149E-13 0.561E+02 0.561E+02   0.000E+00 0.610E+00 0.610E+00   0.317E-14 0.839E-01 0.839E-01
   0.332E-12 -.708E+02 -.708E+02   -.104E-13 0.694E+02 0.694E+02   0.000E+00 0.137E+01 0.137E+01   0.362E-13 0.116E+00 0.116E+00
   0.291E-12 0.708E+02 0.708E+02   0.314E-13 -.694E+02 -.694E+02   0.000E+00 -.137E+01 -.137E+01   0.438E-13 -.116E+00 -.116E+00
   0.121E-12 0.178E+02 0.395E+02   0.112E-13 -.169E+02 -.399E+02   0.000E+00 -.866E+00 0.399E+00   0.187E-13 -.229E-01 -.541E-01
   0.120E-12 -.178E+02 -.395E+02   0.108E-13 0.169E+02 0.399E+02   0.000E+00 0.866E+00 -.399E+00   0.295E-13 0.229E-01 0.541E-01
   0.115E-12 -.344E+02 -.106E+03   0.147E-13 0.325E+02 0.102E+03   0.000E+00 0.189E+01 0.462E+01   0.233E-13 0.525E-01 0.655E-01
   0.119E-12 -.104E-04 0.497E-05   0.687E-14 -.345E-11 0.477E-10   0.000E+00 0.983E-19 -.136E-19   0.249E-13 -.209E-05 -.222E-05
   0.112E-12 0.344E+02 0.106E+03   -.105E-13 -.325E+02 -.102E+03   0.000E+00 -.189E+01 -.462E+01   0.316E-13 -.525E-01 -.655E-01
   0.119E-12 0.395E+02 0.178E+02   0.175E-13 -.399E+02 -.169E+02   0.000E+00 0.399E+00 -.866E+00   0.147E-13 -.541E-01 -.229E-01
   0.119E-12 -.395E+02 -.178E+02   -.296E-13 0.399E+02 0.169E+02   0.000E+00 -.399E+00 0.866E+00   0.145E-13 0.541E-01 0.229E-01
   0.105E-12 -.106E+03 -.344E+02   0.320E-13 0.102E+03 0.325E+02   0.000E+00 0.462E+01 0.189E+01   0.254E-13 0.655E-01 0.525E-01
   0.115E-12 -.276E-04 0.409E-04   0.214E-13 0.236E-10 -.187E-10   0.000E+00 -.203E-19 0.881E-19   0.215E-13 -.221E-05 -.205E-05
   0.122E-12 0.106E+03 0.344E+02   -.174E-13 -.102E+03 -.325E+02   0.000E+00 -.462E+01 -.189E+01   0.936E-14 -.655E-01 -.525E-01
   -.193E-14 0.435E+02 0.435E+02   0.432E-13 -.430E+02 -.430E+02   0.000E+00 -.490E+00 -.490E+00   0.738E-14 -.501E-01 -.501E-01
   -.387E-14 -.491E-04 0.990E-06   -.428E-14 0.226E-11 0.546E-11   0.000E+00 0.136E-19 -.136E-19   -.431E-14 0.183E-05 0.191E-05
   -.101E-13 -.435E+02 -.435E+02   -.208E-13 0.430E+02 0.430E+02   0.000E+00 0.490E+00 0.490E+00   0.305E-14 0.501E-01 0.501E-01
   -.834E-14 -.405E+02 -.405E+02   -.195E-13 0.403E+02 0.403E+02   0.000E+00 0.158E+00 0.158E+00   -.674E-14 0.434E-01 0.434E-01
   -.745E-14 0.405E+02 0.405E+02   -.934E-14 -.403E+02 -.403E+02   0.000E+00 -.158E+00 -.158E+00   -.712E-15 -.434E-01 -.434E-01
 -----------------------------------------------------------------------------------------------
   0.192E-11 0.371E-04 -.464E-05   0.691E-15 0.142E-13 -.107E-12   0.000E+00 -.971E-15 -.167E-15   0.333E-12 -.159E-04 -.473E-05
 
 
 POSITION                                       TOTAL-FORCE (eV/Angst)
 -----------------------------------------------------------------------------------
      0.00000      4.03196      0.13292         0.000000     -0.010189     -0.010189
      0.00000      3.77927      3.77927         0.000000      0.010189      0.010189
      0.00000      7.68488      3.78584         0.000000      0.011720      0.011720
      0.00000      7.81561      7.81561         0.000000     -0.000000     -0.000000
      0.00000      0.12634      0.12634         0.000000     -0.011720     -0.011720
      1.93886      9.76513      5.86609         0.000000     -0.000000     -0.000000
      1.93886      1.95054     -1.94850         0.000000      0.005330      0.005330
      1.93886      5.86069      5.86069         0.000000     -0.005330     -0.005330
      1.93886      5.86877      1.96973         0.000000     -0.001467     -0.001467
      1.93886      1.94246      1.94246         0.000000      0.001467      0.001467
      1.93886      9.74175      7.82304         0.000000     -0.023309     -0.047783
      1.93886      5.88947      7.80818         0.000000      0.023309      0.047783
      1.93886      5.90091      3.95697         0.000000      0.038550      0.014774
      1.93886      5.85513      0.00657         0.000000     -0.000000     -0.000000
      1.93886      1.91032     -0.04478         0.000000     -0.038550     -0.014774
      1.93886      7.82304      9.74175         0.000000     -0.047783     -0.023309
      1.93886      7.80818      5.88947         0.000000      0.047783      0.023309
      1.93886      3.95697      5.90091         0.000000      0.014774      0.038550
      1.93886      3.90561      1.95609         0.000000     -0.000000     -0.000000
      1.93886      3.85426     -1.98872         0.000000     -0.014774     -0.038550
      0.00000      9.74033      9.74033         0.000000     -0.022020     -0.022020
      0.00000      9.76513      5.86609         0.000000     -0.000000     -0.000000
      0.00000      5.89089      5.89089         0.000000      0.022020      0.022020
      0.00000      5.87320      1.97416         0.000000     -0.002379     -0.002379
      0.00000      1.93803      1.93803         0.000000      0.002379      0.002379
 -----------------------------------------------------------------------------------
    total drift:                                0.000000      0.000021     -0.000009


--------------------------------------------------------------------------------------------------------



  FREE ENERGIE OF THE ION-ELECTRON SYSTEM (eV)
  ---------------------------------------------------
  free  energy   TOTEN  =      -186.59144339 eV

  energy  without entropy=     -186.59144339  energy(sigma->0) =     -186.59144339
 


--------------------------------------------------------------------------------------------------------


    POTLOK:  cpu time    0.0721: real time    0.0723


--------------------------------------------------------------------------------------------------------


     LOOP+:  cpu time   56.3921: real time   56.6684
    4ORBIT:  cpu time    0.0000: real time    0.0000
 


 total charge     
 
# of ion       s       p       d       f       tot
--------------------------------------------------
    1        2.001   5.694   0.496   0.189   8.381
    2        2.001   5.694   0.496   0.189   8.381
    3        2.002   5.698   0.504   0.196   8.400
    4        2.000   5.701   0.495   0.194   8.390
    5        2.002   5.698   0.504   0.196   8.400
    6        0.317   0.479   4.867   0.000   5.663
    7        0.337   0.517   4.870   0.000   5.724
    8        0.337   0.517   4.870   0.000   5.724
    9        0.407   0.596   8.334   0.000   9.337
   10        0.407   0.596   8.334   0.000   9.337
   11        1.563   3.455   0.000   0.000   5.018
   12        1.563   3.455   0.000   0.000   5.018
   13        1.563   3.451   0.000   0.000   5.013
   14        1.557   3.462   0.000   0.000   5.019
   15        1.563   3.451   0.000   0.000   5.013
   16        1.563   3.453   0.000   0.000   5.016
   17        1.563   3.453   0.000   0.000   5.016
   18        1.563   3.451   0.000   0.000   5.014
   19        1.557   3.458   0.000   0.000   5.014
   20        1.563   3.451   0.000   0.000   5.014
   21        1.565   3.453   0.000   0.000   5.018
   22        1.564   3.449   0.000   0.000   5.013
   23        1.565   3.453   0.000   0.000   5.018
   24        1.558   3.464   0.000   0.000   5.022
   25        1.558   3.464   0.000   0.000   5.022
--------------------------------------------------
tot         35.237  83.013  33.770   0.964 152.983

 


 magnetization (x)
 
# of ion       s       p       d       f       tot
--------------------------------------------------
    1        0.000  -0.000   0.002   0.002   0.003
    2        0.000  -0.000   0.002   0.002   0.003
    3        0.001   0.001   0.011   0.006   0.018
    4        0.001   0.001   0.014   0.007   0.023
    5        0.001   0.001   0.011   0.006   0.018
    6        0.021   0.019   3.651   0.000   3.691
    7        0.024   0.023   3.493   0.000   3.540
    8        0.024   0.023   3.493   0.000   3.540
    9        0.015   0.013   1.627   0.000   1.655
   10        0.015   0.013   1.627   0.000   1.655
   11        0.004  -0.042   0.000   0.000  -0.039
   12        0.004  -0.042   0.000   0.000  -0.039
   13        0.006  -0.034   0.000   0.000  -0.029
   14        0.007   0.026   0.000   0.000   0.033
   15        0.006  -0.034   0.000   0.000  -0.029
   16        0.004  -0.044   0.000   0.000  -0.040
   17        0.004  -0.044   0.000   0.000  -0.040
   18        0.006  -0.034   0.000   0.000  -0.028
   19        0.007   0.021   0.000   0.000   0.028
   20        0.006  -0.034   0.000   0.000  -0.028
   21        0.004  -0.058   0.000   0.000  -0.054
   22        0.004  -0.053   0.000   0.000  -0.048
   23        0.004  -0.058   0.000   0.000  -0.054
   24        0.006  -0.009   0.000   0.000  -0.003
   25        0.006  -0.009   0.000   0.000  -0.003
--------------------------------------------------
tot          0.180  -0.356  13.930   0.022  13.775

 
 BZINTS: Fermi energy:  7.682185;186.000000 electrons
         Band energy:-298.743143;  BLOECHL correction: -0.094059

 total amount of memory used by VASP MPI-rank0    59313. kBytes
=======================================================================

   base      :      30000. kBytes
   nonlr-proj:       5741. kBytes
   fftplans  :       2265. kBytes
   grid      :       6360. kBytes
   one-center:        294. kBytes
   wavefun   :      14653. kBytes
 
  
  
 General timing and accounting informations for this job:
 ========================================================
  
                  Total CPU time used (sec):       62.786
                            User time (sec):       60.560
                          System time (sec):        2.225
                         Elapsed time (sec):       63.197
  
                   Maximum memory used (kb):       99860.
                   Average memory used (kb):           0.
  
                          Minor page faults:        33636
                          Major page faults:            0
                 Voluntary context switches:         1091
