       N       E                     dE             d eps       ncg     rms          rms(c)
DAV:   1     0.355377229184E+04    0.35538E+04   -0.75777E+04  4912   0.238E+03
DAV:   2     0.123894232032E+04   -0.23148E+04   -0.20762E+04  5152   0.628E+02
DAV:   3     0.259458758872E+03   -0.97948E+03   -0.88189E+03  5488   0.331E+02
DAV:   4    -0.168587919359E+03   -0.42805E+03   -0.40077E+03  7368   0.185E+02
DAV:   5    -0.261457041209E+03   -0.92869E+02   -0.89640E+02  8280   0.951E+01    0.682E+01
RMM:   6    -0.233676725146E+03    0.27780E+02   -0.71553E+02  7434   0.103E+02    0.105E+02
RMM:   7    -0.232859042397E+03    0.81768E+00   -0.13873E+02  7999   0.363E+01    0.425E+01
RMM:   8    -0.226358054271E+03    0.65010E+01   -0.61427E+01  5920   0.390E+01    0.235E+01
RMM:   9    -0.230793564031E+03   -0.44355E+01   -0.47717E+01  7747   0.164E+01    0.185E+01
RMM:  10    -0.231762773224E+03   -0.96921E+00   -0.13153E+01  8175   0.806E+00    0.887E+00
RMM:  11    -0.231895567851E+03   -0.13279E+00   -0.94877E+00  7887   0.744E+00    0.421E+00
RMM:  12    -0.232269543682E+03   -0.37398E+00   -0.46507E+00  8501   0.316E+00    0.262E+00
RMM:  13    -0.232315523356E+03   -0.45980E-01   -0.90495E-01  8453   0.168E+00    0.204E+00
RMM:  14    -0.232344693836E+03   -0.29170E-01   -0.31626E-01  7937   0.145E+00    0.159E+00
RMM:  15    -0.232359891038E+03   -0.15197E-01   -0.16577E-01  7755   0.859E-01    0.112E+00
RMM:  16    -0.232360383760E+03   -0.49272E-03   -0.69930E-02  6719   0.612E-01    0.779E-01
RMM:  17    -0.232362616847E+03   -0.22331E-02   -0.37548E-02  6691   0.531E-01    0.390E-01
RMM:  18    -0.232364498755E+03   -0.18819E-02   -0.20244E-02  5341   0.401E-01    0.212E-01
RMM:  19    -0.232365341187E+03   -0.84243E-03   -0.92591E-03  4734   0.320E-01
   1 F= -.23236534E+03 E0= -.23236534E+03  d E =0.000000E+00  mag=    21.0016
