 vasp.5.4.4.18Apr17-6-g9f103f2a35 (build Oct 03 2018 13:58:34) complex          
  
 executed on             LinuxIFC date 2019.06.04  01:11:53
 running on   40 total cores
 distrk:  each k-point on   20 cores,    2 groups
 distr:  one band on NCORES_PER_BAND=  10 cores,    2 groups


--------------------------------------------------------------------------------------------------------


 INCAR:
 POTCAR:    PAW_PBE La 06Sep2000                  
 POTCAR:    PAW_PBE Mn 06Sep2000                  
 POTCAR:    PAW_PBE Ni 02Aug2007                  
 POTCAR:    PAW_PBE O 08Apr2002                   

 ----------------------------------------------------------------------------- 
|                                                                             |
|           W    W    AA    RRRRR   N    N  II  N    N   GGGG   !!!           |
|           W    W   A  A   R    R  NN   N  II  NN   N  G    G  !!!           |
|           W    W  A    A  R    R  N N  N  II  N N  N  G       !!!           |
|           W WW W  AAAAAA  RRRRR   N  N N  II  N  N N  G  GGG   !            |
|           WW  WW  A    A  R   R   N   NN  II  N   NN  G    G                |
|           W    W  A    A  R    R  N    N  II  N    N   GGGG   !!!           |
|                                                                             |
|      You have enabled k-point parallelism (KPAR>1).                         |
|      This developmental code was originally  written by Paul Kent at ORNL,  |
|      and carefully double checked in Vienna.                                |
|      GW as well as linear response parallelism added by Martijn Marsman     |
|      and Georg Kresse.                                                      |
|      Carefully verify results versus KPAR=1.                                |
|      Report problems to Paul Kent and Vienna.                               |
|                                                                             |
 ----------------------------------------------------------------------------- 

 POTCAR:    PAW_PBE La 06Sep2000                  
   VRHFIN =La : [core=Kr4d]                                                     
   LEXCH  = PE                                                                  
   EATOM  =   865.9763 eV,   63.6475 Ry                                         
                                                                                
   TITEL  = PAW_PBE La 06Sep2000                                                
   LULTRA =        F    use ultrasoft PP ?                                      
   IUNSCR =        1    unscreen: 0-lin 1-nonlin 2-no                           
   RPACOR =    2.300    partial core radius                                     
   POMASS =  138.900; ZVAL   =   11.000    mass and valenz                      
   RCORE  =    2.800    outmost cutoff radius                                   
   RWIGS  =    2.900; RWIGS  =    1.535    wigner-seitz radius (au A)           
   ENMAX  =  219.292; ENMIN  =  164.469 eV                                      
   RCLOC  =    1.601    cutoff for local pot                                    
   LCOR   =        T    correct aug charges                                     
   LPAW   =        T    paw PP                                                  
   EAUG   =  583.575                                                            
   DEXC   =    0.000                                                            
   RMAX   =    2.853    core radius for proj-oper                               
   RAUG   =    1.300    factor for augmentation sphere                          
   RDEP   =    2.802    radius for radial grids                                 
   RDEPT  =    2.156    core radius for aug-charge                              
                                                                                
   Atomic configuration                                                         
   14 entries                                                                   
     n  l   j            E        occ.                                          
     1  0  0.50    -38741.0879   2.0000                                         
     2  0  0.50     -6166.6801   2.0000                                         
     2  1  1.50     -5526.1593   6.0000                                         
     3  0  0.50     -1319.0200   2.0000                                         
     3  1  1.50     -1114.5963   6.0000                                         
     3  2  2.50      -821.1793  10.0000                                         
     4  0  0.50      -266.3851   2.0000                                         
     4  1  1.50      -199.9276   6.0000                                         
     4  2  2.50      -103.8239  10.0000                                         
     5  0  0.50       -38.9172   2.0000                                         
     6  0  0.50        -3.6792   2.0000                                         
     5  1  1.50       -22.3948   6.0000                                         
     5  2  2.50        -3.0911   0.9999                                         
     4  3  2.50        -4.3603   0.0001                                         
   Description                                                                  
     l       E           TYP  RCUT    TYP  RCUT                                 
     0    -38.9171645     23  2.800                                             
     0     -3.6792381     23  2.800                                             
     1    -22.3948300     23  2.500                                             
     1     27.2116520     23  2.500                                             
     2     -3.0910934     23  2.500                                             
     2      1.0119135     23  2.500                                             
     3     -4.3602911     23  2.800                                             
     3     -5.7208737     23  2.800                                             
  local pseudopotential read in
  partial core-charges read in
  partial kinetic energy density read in
  atomic valenz-charges read in
  non local Contribution for L=           0  read in
    real space projection operators read in
  non local Contribution for L=           0  read in
    real space projection operators read in
  non local Contribution for L=           1  read in
    real space projection operators read in
  non local Contribution for L=           1  read in
    real space projection operators read in
  non local Contribution for L=           2  read in
    real space projection operators read in
  non local Contribution for L=           2  read in
    real space projection operators read in
  non local Contribution for L=           3  read in
    real space projection operators read in
  non local Contribution for L=           3  read in
    real space projection operators read in
    PAW grid and wavefunctions read in
 
   number of l-projection  operators is LMAX  =           8
   number of lm-projection operators is LMMAX =          32
 
 POTCAR:    PAW_PBE Mn 06Sep2000                  
   VRHFIN =Mn: d6 s1                                                            
   LEXCH  = PE                                                                  
   EATOM  =   416.7541 eV,   30.6306 Ry                                         
                                                                                
   TITEL  = PAW_PBE Mn 06Sep2000                                                
   LULTRA =        F    use ultrasoft PP ?                                      
   IUNSCR =        1    unscreen: 0-lin 1-nonlin 2-no                           
   RPACOR =    2.000    partial core radius                                     
   POMASS =   54.938; ZVAL   =    7.000    mass and valenz                      
   RCORE  =    2.300    outmost cutoff radius                                   
   RWIGS  =    2.500; RWIGS  =    1.323    wigner-seitz radius (au A)           
   ENMAX  =  269.864; ENMIN  =  202.398 eV                                      
   RCLOC  =    1.725    cutoff for local pot                                    
   LCOR   =        T    correct aug charges                                     
   LPAW   =        T    paw PP                                                  
   EAUG   =  500.711                                                            
   DEXC   =    0.000                                                            
   RMAX   =    2.343    core radius for proj-oper                               
   RAUG   =    1.300    factor for augmentation sphere                          
   RDEP   =    2.338    radius for radial grids                                 
   RDEPT  =    1.911    core radius for aug-charge                              
                                                                                
   Atomic configuration                                                         
    9 entries                                                                   
     n  l   j            E        occ.                                          
     1  0  0.50     -6424.8288   2.0000                                         
     2  0  0.50      -739.1154   2.0000                                         
     2  1  1.50      -625.3949   6.0000                                         
     3  0  0.50       -81.6100   2.0000                                         
     3  1  1.50       -50.4667   6.0000                                         
     3  2  2.50        -3.3745   6.0000                                         
     4  0  0.50        -4.1331   1.0000                                         
     4  1  0.50        -4.0817   0.0000                                         
     4  3  2.50        -1.3606   0.0000                                         
   Description                                                                  
     l       E           TYP  RCUT    TYP  RCUT                                 
     2     -3.3744664     23  2.300                                             
     2     -4.7350490     23  2.300                                             
     0     -4.1331408     23  2.300                                             
     0      7.6656614     23  2.300                                             
     1     -2.7211652     23  2.300                                             
     1     20.4087390     23  2.300                                             
  local pseudopotential read in
  partial core-charges read in
  partial kinetic energy density read in
  atomic valenz-charges read in
  non local Contribution for L=           2  read in
    real space projection operators read in
  non local Contribution for L=           2  read in
    real space projection operators read in
  non local Contribution for L=           0  read in
    real space projection operators read in
  non local Contribution for L=           0  read in
    real space projection operators read in
  non local Contribution for L=           1  read in
    real space projection operators read in
  non local Contribution for L=           1  read in
    real space projection operators read in
    PAW grid and wavefunctions read in
 
   number of l-projection  operators is LMAX  =           6
   number of lm-projection operators is LMMAX =          18
 
 POTCAR:    PAW_PBE Ni 02Aug2007                  
   VRHFIN =Ni:                                                                  
   LEXCH  = PE                                                                  
   EATOM  =  1077.6739 eV,   79.2068 Ry                                         
                                                                                
   TITEL  = PAW_PBE Ni 02Aug2007                                                
   LULTRA =        F    use ultrasoft PP ?                                      
   IUNSCR =        1    unscreen: 0-lin 1-nonlin 2-no                           
   RPACOR =    2.000    partial core radius                                     
   POMASS =   58.690; ZVAL   =   10.000    mass and valenz                      
   RCORE  =    2.300    outmost cutoff radius                                   
   RWIGS  =    2.430; RWIGS  =    1.286    wigner-seitz radius (au A)           
   ENMAX  =  269.532; ENMIN  =  202.149 eV                                      
   RCLOC  =    1.201    cutoff for local pot                                    
   LCOR   =        T    correct aug charges                                     
   LPAW   =        T    paw PP                                                  
   EAUG   =  544.565                                                            
   DEXC   =    0.000                                                            
   RMAX   =    2.357    core radius for proj-oper                               
   RAUG   =    1.300    factor for augmentation sphere                          
   RDEP   =    2.390    radius for radial grids                                 
   RDEPT  =    1.838    core radius for aug-charge                              
                                                                                
   Atomic configuration                                                         
    9 entries                                                                   
     n  l   j            E        occ.                                          
     1  0  0.50     -8206.4253   2.0000                                         
     2  0  0.50      -976.1748   2.0000                                         
     2  1  1.50      -839.0571   6.0000                                         
     3  0  0.50      -105.9991   2.0000                                         
     3  1  1.50       -66.4603   6.0000                                         
     3  2  2.50        -4.6458   9.0000                                         
     4  0  0.50        -4.4926   1.0000                                         
     4  1  1.50        -4.0817   0.0000                                         
     4  3  2.50        -1.3606   0.0000                                         
   Description                                                                  
     l       E           TYP  RCUT    TYP  RCUT                                 
     2     -4.6457903     23  2.300                                             
     2     -6.0063729     23  2.300                                             
     0     -4.4925590     23  2.300                                             
     0      5.0102601     23  2.300                                             
     1     -2.7211652     23  2.300                                             
     1     16.5183231     23  2.300                                             
  local pseudopotential read in
  partial core-charges read in
  partial kinetic energy density read in
  atomic valenz-charges read in
  non local Contribution for L=           2  read in
    real space projection operators read in
  non local Contribution for L=           2  read in
    real space projection operators read in
  non local Contribution for L=           0  read in
    real space projection operators read in
  non local Contribution for L=           0  read in
    real space projection operators read in
  non local Contribution for L=           1  read in
    real space projection operators read in
  non local Contribution for L=           1  read in
    real space projection operators read in
    PAW grid and wavefunctions read in
 
   number of l-projection  operators is LMAX  =           6
   number of lm-projection operators is LMMAX =          18
 
 POTCAR:    PAW_PBE O 08Apr2002                   
   VRHFIN =O: s2p4                                                              
   LEXCH  = PE                                                                  
   EATOM  =   432.3788 eV,   31.7789 Ry                                         
                                                                                
   TITEL  = PAW_PBE O 08Apr2002                                                 
   LULTRA =        F    use ultrasoft PP ?                                      
   IUNSCR =        1    unscreen: 0-lin 1-nonlin 2-no                           
   RPACOR =    1.200    partial core radius                                     
   POMASS =   16.000; ZVAL   =    6.000    mass and valenz                      
   RCORE  =    1.520    outmost cutoff radius                                   
   RWIGS  =    1.550; RWIGS  =    0.820    wigner-seitz radius (au A)           
   ENMAX  =  400.000; ENMIN  =  300.000 eV                                      
   ICORE  =        2    local potential                                         
   LCOR   =        T    correct aug charges                                     
   LPAW   =        T    paw PP                                                  
   EAUG   =  605.392                                                            
   DEXC   =    0.000                                                            
   RMAX   =    1.553    core radius for proj-oper                               
   RAUG   =    1.300    factor for augmentation sphere                          
   RDEP   =    1.550    radius for radial grids                                 
   RDEPT  =    1.329    core radius for aug-charge                              
                                                                                
   Atomic configuration                                                         
    4 entries                                                                   
     n  l   j            E        occ.                                          
     1  0  0.50      -514.6923   2.0000                                         
     2  0  0.50       -23.9615   2.0000                                         
     2  1  0.50        -9.0305   4.0000                                         
     3  2  1.50        -9.5241   0.0000                                         
   Description                                                                  
     l       E           TYP  RCUT    TYP  RCUT                                 
     0    -23.9615318     23  1.200                                             
     0     -9.5240782     23  1.200                                             
     1     -9.0304911     23  1.520                                             
     1      8.1634956     23  1.520                                             
     2     -9.5240782      7  1.500                                             
  local pseudopotential read in
  partial core-charges read in
  partial kinetic energy density read in
  kinetic energy density of atom read in
  atomic valenz-charges read in
  non local Contribution for L=           0  read in
    real space projection operators read in
  non local Contribution for L=           0  read in
    real space projection operators read in
  non local Contribution for L=           1  read in
    real space projection operators read in
  non local Contribution for L=           1  read in
    real space projection operators read in
    PAW grid and wavefunctions read in
 
   number of l-projection  operators is LMAX  =           4
   number of lm-projection operators is LMMAX =           8
 
 Optimization of the real space projectors (new method)

 maximal supplied QI-value         = 13.42
 optimisation between [QCUT,QGAM] = [ 11.67, 23.35] = [ 38.16,152.62] Ry 
 Optimized for a Real-space Cutoff    1.63 Angstroem

   l    n(q)    QCUT    max X(q) W(low)/X(q) W(high)/X(q)  e(spline) 
   0     11    11.673    13.882    0.27E-04    0.79E-05    0.11E-06
   0     11    11.673    12.184    0.39E-04    0.13E-04    0.19E-06
   1     11    11.673     4.523    0.73E-05    0.76E-05    0.12E-06
   1     11    11.673     4.424    0.87E-05    0.13E-04    0.19E-06
   2     10    11.673    52.481    0.65E-04    0.36E-04    0.18E-06
   2     10    11.673    38.501    0.61E-04    0.33E-04    0.17E-06
   3     10    11.673    65.631    0.17E-03    0.14E-03    0.37E-06
   3     10    11.673    56.854    0.17E-03    0.14E-03    0.37E-06
 Optimization of the real space projectors (new method)

 maximal supplied QI-value         = 16.25
 optimisation between [QCUT,QGAM] = [ 11.54, 23.24] = [ 37.28,151.24] Ry 
 Optimized for a Real-space Cutoff    1.53 Angstroem

   l    n(q)    QCUT    max X(q) W(low)/X(q) W(high)/X(q)  e(spline) 
   2     10    11.539   110.144    0.12E-03    0.13E-03    0.25E-06
   2     10    11.539   103.200    0.12E-03    0.13E-03    0.25E-06
   0     11    11.539    68.437    0.46E-04    0.21E-04    0.32E-06
   0     11    11.539    33.971    0.37E-04    0.19E-04    0.29E-06
   1     10    11.539    17.065    0.51E-04    0.22E-04    0.13E-06
   1     10    11.539    12.540    0.41E-04    0.18E-04    0.11E-06
 Optimization of the real space projectors (new method)

 maximal supplied QI-value         = 16.25
 optimisation between [QCUT,QGAM] = [ 11.54, 23.24] = [ 37.28,151.24] Ry 
 Optimized for a Real-space Cutoff    1.45 Angstroem

   l    n(q)    QCUT    max X(q) W(low)/X(q) W(high)/X(q)  e(spline) 
   2      9    11.539    60.317    0.19E-03    0.47E-04    0.16E-06
   2      9    11.539    55.921    0.19E-03    0.48E-04    0.16E-06
   0     10    11.539    51.690    0.80E-04    0.50E-04    0.24E-06
   0     10    11.539    30.015    0.73E-04    0.45E-04    0.22E-06
   1     10    11.539    18.849    0.87E-04    0.16E-03    0.71E-07
   1     10    11.539    14.624    0.73E-04    0.13E-03    0.64E-07
 Optimization of the real space projectors (new method)

 maximal supplied QI-value         = 24.76
 optimisation between [QCUT,QGAM] = [ 11.64, 23.27] = [ 37.91,151.63] Ry 
 Optimized for a Real-space Cutoff    1.14 Angstroem

   l    n(q)    QCUT    max X(q) W(low)/X(q) W(high)/X(q)  e(spline) 
   0      8    11.635    20.381    0.10E-03    0.33E-03    0.24E-06
   0      8    11.635    15.268    0.11E-03    0.35E-03    0.26E-06
   1      7    11.635     5.964    0.24E-03    0.31E-03    0.30E-06
   1      7    11.635     5.382    0.22E-03    0.25E-03    0.26E-06
  PAW_PBE La 06Sep2000                  :
 energy of atom  1       EATOM= -865.9763
 kinetic energy error for atom=    0.0009 (will be added to EATOM!!)
  PAW_PBE Mn 06Sep2000                  :
 energy of atom  2       EATOM= -416.7541
 kinetic energy error for atom=    0.0024 (will be added to EATOM!!)
  PAW_PBE Ni 02Aug2007                  :
 energy of atom  3       EATOM=-1077.6739
 kinetic energy error for atom=    0.0030 (will be added to EATOM!!)
  PAW_PBE O 08Apr2002                   :
 energy of atom  4       EATOM= -432.3788
 kinetic energy error for atom=    0.0208 (will be added to EATOM!!)
 
 
 POSCAR: SCEL6_3_2_1_1_1_0/0                     
  positions in direct lattice
  velocities in cartesian coordinates
 exchange correlation table for  LEXCH =        8
   RHO(1)=    0.500       N(1)  =     2000
   RHO(2)=  100.500       N(2)  =     4000
 


--------------------------------------------------------------------------------------------------------


 ion  position               nearest neighbor table
   1  0.164  0.172  0.328-  17 2.72  30 2.72  24 2.73  14 2.77  13 2.77  27 2.77  20 2.77  23 2.77
                            29 2.78  16 2.81  26 2.82  19 2.82  12 3.34   9 3.37   7 3.37  11 3.38
   2  0.328  0.336  0.672-  18 2.72  28 2.72  24 2.73  15 2.77  16 2.77  25 2.77  22 2.77  19 2.77
                            29 2.78  13 2.81  26 2.82  23 2.82  12 3.34   9 3.37  10 3.37   8 3.38
   3  0.500  0.500  0.000-  22 2.77  23 2.77  14 2.77  15 2.77  25 2.77  27 2.77  21 2.77  24 2.77
                            17 2.77  18 2.77  28 2.78  30 2.78   8 3.39  11 3.39   9 3.39   9 3.39
   4  0.672  0.664  0.328-  17 2.72  30 2.72  21 2.73  14 2.77  13 2.77  27 2.77  23 2.77  20 2.77
                            29 2.78  16 2.81  26 2.82  22 2.82  12 3.34   9 3.37   7 3.37  11 3.38
   5  0.836  0.828  0.672-  18 2.72  28 2.72  21 2.73  15 2.77  16 2.77  25 2.77  19 2.77  22 2.77
                            29 2.78  13 2.81  26 2.82  20 2.82  12 3.34   9 3.37  10 3.37   8 3.38
   6  0.000  0.000  0.000-  19 2.77  20 2.77  14 2.77  15 2.77  25 2.77  27 2.77  21 2.77  24 2.77
                            17 2.77  18 2.77  28 2.78  30 2.78   8 3.39  11 3.39   9 3.39   9 3.39
   7  0.667  0.167  0.334-  30 1.94  26 1.95  20 1.96  23 1.96  14 1.99  13 1.99   1 3.37   4 3.37
                             3 3.40   6 3.40   4 3.42   1 3.42
   8  0.834  0.334  0.667-  13 1.93  18 1.94  19 1.95  22 1.95  29 1.96  25 1.96   2 3.38   5 3.38
                             3 3.39   6 3.39   5 3.41   2 3.41   1 3.42   4 3.42
   9  0.500  0.000  0.000-  21 1.92  24 1.92  14 1.95  15 1.95  25 1.96  27 1.96   4 3.37   5 3.37
                             1 3.37   2 3.37   3 3.39   6 3.39   3 3.39   6 3.39
  10  0.333  0.833  0.666-  28 1.94  26 1.95  19 1.96  22 1.96  15 1.99  16 1.99   2 3.37   5 3.37
                             3 3.40   6 3.40   5 3.42   2 3.42
  11  0.166  0.666  0.333-  16 1.93  17 1.94  20 1.95  23 1.95  29 1.96  27 1.96   1 3.38   4 3.38
                             3 3.39   6 3.39   4 3.41   1 3.41   5 3.42   2 3.42
  12  0.000  0.500  0.000-  28 1.97  30 1.97  17 1.98  18 1.98  21 2.00  24 2.00   4 3.34   5 3.34
                             1 3.34   2 3.34
  13  0.752  0.252  0.503-   8 1.93   7 1.99   1 2.77   4 2.77   2 2.81   5 2.81
  14  0.583  0.083  0.166-   9 1.95   7 1.99   1 2.77   4 2.77   3 2.77   6 2.77
  15  0.417  0.917  0.834-   9 1.95  10 1.99   2 2.77   5 2.77   3 2.77   6 2.77
  16  0.248  0.748  0.497-  11 1.93  10 1.99   2 2.77   5 2.77   4 2.81   1 2.81
  17  0.083  0.583  0.168-  11 1.94  12 1.98   1 2.72   4 2.72   3 2.77   6 2.77
  18  0.917  0.417  0.832-   8 1.94  12 1.98   2 2.72   5 2.72   3 2.77   6 2.77
  19  0.083  0.084  0.667-   8 1.95  10 1.96   6 2.77   5 2.77   2 2.77   1 2.82
  20  0.917  0.916  0.333-  11 1.95   7 1.96   6 2.77   1 2.77   4 2.77   5 2.82
  21  0.745  0.755  0.000-   9 1.92  12 2.00   4 2.73   5 2.73   3 2.77   6 2.77
  22  0.584  0.583  0.667-   8 1.95  10 1.96   3 2.77   2 2.77   5 2.77   4 2.82
  23  0.416  0.417  0.333-  11 1.95   7 1.96   3 2.77   4 2.77   1 2.77   2 2.82
  24  0.255  0.245  0.000-   9 1.92  12 2.00   1 2.73   2 2.73   3 2.77   6 2.77
  25  0.667  0.167  0.833-   9 1.96   8 1.96   2 2.77   5 2.77   3 2.77   6 2.77
  26  0.500  0.000  0.500-   7 1.95  10 1.95   4 2.82   5 2.82   1 2.82   2 2.82
  27  0.333  0.833  0.167-   9 1.96  11 1.96   1 2.77   4 2.77   3 2.77   6 2.77
  28  0.168  0.668  0.831-  10 1.94  12 1.97   2 2.72   5 2.72   3 2.78   6 2.78
  29  0.000  0.500  0.500-   8 1.96  11 1.96   4 2.78   5 2.78   1 2.78   2 2.78
  30  0.832  0.332  0.169-   7 1.94  12 1.97   1 2.72   4 2.72   3 2.78   6 2.78
 
  LATTYP: Found a base centered monoclinic cell.
 ALAT       =    11.0900217882
 B/A-ratio  =     0.7065032386
 C/A-ratio  =     2.3737769961
 COS(beta)  =    -0.7749285058
  
  Lattice vectors:
  
 A1 = (   3.9149331010,   3.9175681549,   3.9268873972)
 A2 = (   3.9149331010,  -3.9175681549,   3.9268873972)
 A3 = ( -11.7472709553,   0.0000000000, -23.5588584789)


Analysis of symmetry for initial positions (statically):
=====================================================================
 Subroutine PRICEL returns:
 Original cell was already a primitive cell.
 

 Routine SETGRP: Setting up the symmetry group for a 
 base centered monoclinic supercell.


 Subroutine GETGRP returns: Found  4 space group operations
 (whereof  2 operations were pure point group operations)
 out of a pool of  4 trial point group operations.


The static configuration has the point symmetry S_2 .
 The point group associated with its full space group is C_2h.


Analysis of symmetry for dynamics (positions and initial velocities):
=====================================================================
 Subroutine PRICEL returns:
 Original cell was already a primitive cell.
 

 Routine SETGRP: Setting up the symmetry group for a 
 base centered monoclinic supercell.


 Subroutine GETGRP returns: Found  4 space group operations
 (whereof  2 operations were pure point group operations)
 out of a pool of  4 trial point group operations.


The dynamic configuration has the point symmetry S_2 .
 The point group associated with its full space group is C_2h.


Analysis of structural, dynamic, and magnetic symmetry:
=====================================================================
 Subroutine PRICEL returns:
 Original cell was already a primitive cell.
 

 Routine SETGRP: Setting up the symmetry group for a 
 base centered monoclinic supercell.


 Subroutine GETGRP returns: Found  4 space group operations
 (whereof  2 operations were pure point group operations)
 out of a pool of  4 trial point group operations.


The magnetic configuration has the point symmetry S_2 .
 The point group associated with its full space group is C_2h.


 Subroutine INISYM returns: Found  4 space group operations
 (whereof  2 operations are pure point group operations),
 and found     1 'primitive' translations

 
 
 KPOINTS: Automatic mesh                          

Automatic generation of k-mesh.
 generate k-points for:    3    3    2
Space group operators:
 irot       det(A)        alpha          n_x          n_y          n_z        tau_x        tau_y        tau_z
    1     1.000000     0.000001     1.000000     0.000000     0.000000     0.000000     0.000000     0.000000
    2    -1.000000     0.000001     1.000000     0.000000     0.000000     0.000000     0.000000     0.000000
    3     1.000000   180.000000     0.000000     1.000000     0.000000     0.500000     0.500000     0.000000
    4    -1.000000   180.000000     0.000000     1.000000     0.000000     0.500000     0.500000     0.000000
 
 Subroutine IBZKPT returns following result:
 ===========================================
 
 Found      8 irreducible k-points:
 
 Following reciprocal coordinates:
            Coordinates               Weight
  0.000000  0.000000  0.000000      1.000000
  0.333333  0.000000  0.000000      4.000000
  0.333333  0.333333  0.000000      2.000000
 -0.333333  0.333333  0.000000      2.000000
  0.000000  0.000000  0.500000      1.000000
  0.333333  0.000000  0.500000      4.000000
  0.333333  0.333333  0.500000      2.000000
 -0.333333  0.333333  0.500000      2.000000
 
 Following cartesian coordinates:
            Coordinates               Weight
  0.000000  0.000000  0.000000      1.000000
  0.028384 -0.042543  0.014144      4.000000
  0.056769  0.000000  0.028289      2.000000
 -0.000000  0.085087 -0.000000      2.000000
 -0.042590  0.000000  0.042460      1.000000
 -0.014206 -0.042543  0.056605      4.000000
  0.014179  0.000000  0.070749      2.000000
 -0.042590  0.085087  0.042460      2.000000
 
 TETIRR: Found     25 inequivalent tetrahedra from      108


--------------------------------------------------------------------------------------------------------




 Dimension of arrays:
   k-points           NKPTS =      8   k-points in BZ     NKDIM =      8   number of bands    NBANDS=    144
   number of dos      NEDOS =    301   number of ions     NIONS =     30
   non local maximal  LDIM  =      8   non local SUM 2l+1 LMDIM =     32
   total plane-waves  NPLWV = 175000
   max r-space proj   IRMAX =   8794   max aug-charges    IRDMAX=  25512
   dimension x,y,z NGX =    50 NGY =   50 NGZ =   70
   dimension x,y,z NGXF=   100 NGYF=  100 NGZF=  140
   support grid    NGXF=   100 NGYF=  100 NGZF=  140
   ions per type =               6   5   1  18
   NGX,Y,Z   is equivalent  to a cutoff of  12.24, 12.24, 13.27 a.u.
   NGXF,Y,Z  is equivalent  to a cutoff of  24.49, 24.49, 26.53 a.u.

 SYSTEM =  final                                   
 POSCAR =  SCEL6_3_2_1_1_1_0/0                     

 Startparameter for this run:
   NWRITE =      2    write-flag & timer
   PREC   = accura    normal or accurate (medium, high low for compatibility)
   ISTART =      0    job   : 0-new  1-cont  2-samecut
   ICHARG =      1    charge: 1-file 2-atom 10-const
   ISPIN  =      2    spin polarized calculation?
   LNONCOLLINEAR =      F non collinear calculations
   LSORBIT =      F    spin-orbit coupling
   INIWAV =      1    electr: 0-lowe 1-rand  2-diag
   LASPH  =      F    aspherical Exc in radial PAW
   METAGGA=      F    non-selfconsistent MetaGGA calc.

 Electronic Relaxation 1
   ENCUT  =  520.0 eV  38.22 Ry    6.18 a.u.  12.62 12.62 16.31*2*pi/ulx,y,z
   ENINI  =  520.0     initial cutoff
   ENAUG  =  605.4 eV  augmentation charge cutoff
   NELM   =    100;   NELMIN=  2; NELMDL= -5     # of ELM steps 
   EDIFF  = 0.1E-02   stopping-criterion for ELM
   LREAL  =      T    real-space projection
   NLSPLINE    = F    spline interpolate recip. space projectors
   LCOMPAT=      F    compatible to vasp.4.4
   GGA_COMPAT  = T    GGA compatible to vasp.4.4-vasp.4.6
   LMAXPAW     = -100 max onsite density
   LMAXMIX     =    6 max onsite mixed and CHGCAR
   VOSKOWN=      0    Vosko Wilk Nusair interpolation
   ROPT   =   -0.00025  -0.00025  -0.00025  -0.00025
 Ionic relaxation
   EDIFFG = 0.1E-01   stopping-criterion for IOM
   NSW    =      0    number of steps for IOM
   NBLOCK =      1;   KBLOCK =      1    inner block; outer block 
   IBRION =     -1    ionic relax: 0-MD 1-quasi-New 2-CG
   NFREE  =      0    steps in history (QN), initial steepest desc. (CG)
   ISIF   =      2    stress and relaxation
   IWAVPR =     10    prediction:  0-non 1-charg 2-wave 3-comb
   ISYM   =      2    0-nonsym 1-usesym 2-fastsym
   LCORR  =      T    Harris-Foulkes like correction to forces

   POTIM  = 0.5000    time-step for ionic-motion
   TEIN   =    0.0    initial temperature
   TEBEG  =    0.0;   TEEND  =   0.0 temperature during run
   SMASS  =  -3.00    Nose mass-parameter (am)
   estimated Nose-frequenzy (Omega)   =  0.10E-29 period in steps =****** mass=  -0.105E-26a.u.
   SCALEE = 1.0000    scale energy and forces
   NPACO  =    256;   APACO  = 16.0  distance and # of slots for P.C.
   PSTRESS=    0.0 pullay stress

  Mass of Ions in am
   POMASS = 138.90 54.94 58.69 16.00
  Ionic Valenz
   ZVAL   =  11.00  7.00 10.00  6.00
  Atomic Wigner-Seitz radii
   RWIGS  =  -1.00 -1.00 -1.00 -1.00
  virtual crystal weights 
   VCA    =   1.00  1.00  1.00  1.00
   NELECT =     219.0000    total number of electrons
   NUPDOWN=      -1.0000    fix difference up-down

 DOS related values:
   EMIN   =  10.00;   EMAX   =-10.00  energy-range for DOS
   EFERMI =   0.00
   ISMEAR =    -5;   SIGMA  =   0.05  broadening in eV -4-tet -1-fermi 0-gaus

 Electronic relaxation 2 (details)
   IALGO  =     68    algorithm
   LDIAG  =      T    sub-space diagonalisation (order eigenvalues)
   LSUBROT=      F    optimize rotation matrix (better conditioning)
   TURBO    =      0    0=normal 1=particle mesh
   IRESTART =      0    0=no restart 2=restart with 2 vectors
   NREBOOT  =      0    no. of reboots
   NMIN     =      0    reboot dimension
   EREF     =   0.00    reference energy to select bands
   IMIX   =      4    mixing-type and parameters
     AMIX     =   0.40;   BMIX     =  1.00
     AMIX_MAG =   1.60;   BMIX_MAG =  1.00
     AMIN     =   0.10
     WC   =   100.;   INIMIX=   1;  MIXPRE=   1;  MAXMIX= -45

 Intra band minimization:
   WEIMIN = 0.0000     energy-eigenvalue tresh-hold
   EBREAK =  0.17E-05  absolut break condition
   DEPER  =   0.30     relativ break condition  

   TIME   =   0.40     timestep for ELM

  volume/ion in A,a.u.               =      12.04        81.25
  Fermi-wavevector in a.u.,A,eV,Ry     =   1.385597  2.618398 26.121522  1.919878
  Thomas-Fermi vector in A             =   2.509992
 
 Write flags
   LWAVE        =      F    write WAVECAR
   LDOWNSAMPLE  =      F    k-point downsampling of WAVECAR
   LCHARG       =      T    write CHGCAR
   LVTOT        =      F    write LOCPOT, total local potential
   LVHAR        =      F    write LOCPOT, Hartree potential only
   LELF         =      F    write electronic localiz. function (ELF)
   LORBIT       =     11    0 simple, 1 ext, 2 COOP (PROOUT), +10 PAW based schemes


 Dipole corrections
   LMONO  =      F    monopole corrections only (constant potential shift)
   LDIPOL =      F    correct potential (dipole corrections)
   IDIPOL =      0    1-x, 2-y, 3-z, 4-all directions 
   EPSILON=  1.0000000 bulk dielectric constant

 LDA+U is selected, type is set to LDAUTYPE =  2
   angular momentum for each species LDAUL =     0    2    2    0
   U (eV)           for each species LDAUU =   0.0  3.9  6.2  0.0
   J (eV)           for each species LDAUJ =   0.0  0.0  0.0  0.0
 Exchange correlation treatment:
   GGA     =    --    GGA type
   LEXCH   =     8    internal setting for exchange type
   VOSKOWN=      0    Vosko Wilk Nusair interpolation
   LHFCALC =     F    Hartree Fock is set to
   LHFONE  =     F    Hartree Fock one center treatment
   AEXX    =    0.0000 exact exchange contribution

 Linear response parameters
   LEPSILON=     F    determine dielectric tensor
   LRPA    =     F    only Hartree local field effects (RPA)
   LNABLA  =     F    use nabla operator in PAW spheres
   LVEL    =     F    velocity operator in full k-point grid
   LINTERFAST=   F  fast interpolation
   KINTER  =     0    interpolate to denser k-point grid
   CSHIFT  =0.1000    complex shift for real part using Kramers Kronig
   OMEGAMAX=  -1.0    maximum frequency
   DEG_THRESHOLD= 0.2000000E-02 threshold for treating states as degnerate
   RTIME   =   -0.100 relaxation time in fs
  (WPLASMAI=    0.000 imaginary part of plasma frequency in eV, 0.658/RTIME)
   DFIELD  = 0.0000000 0.0000000 0.0000000 field for delta impulse in time
 
 Orbital magnetization related:
   ORBITALMAG=     F  switch on orbital magnetization
   LCHIMAG   =     F  perturbation theory with respect to B field
   DQ        =  0.001000  dq finite difference perturbation B field
   LLRAUG    =     F  two centre corrections for induced B field



--------------------------------------------------------------------------------------------------------


 Static calculation
 charge density and potential will be updated during run
 spin polarized calculation
 RMM-DIIS sequential band-by-band and
  variant of blocked Davidson during initial phase
 perform sub-space diagonalisation
    before iterative eigenvector-optimisation
 modified Broyden-mixing scheme, WC =      100.0
 initial mixing is a Kerker type mixing with AMIX =  0.4000 and BMIX =      1.0000
 Hartree-type preconditioning will be used
 using additional bands           34
 real space projection scheme for non local part
 use partial core corrections
 calculate Harris-corrections to forces 
   (improved forces if not selfconsistent)
 use gradient corrections 
 use of overlap-Matrix (Vanderbilt PP)
 Fermi weights with tetrahedron method with Bloechl corrections


--------------------------------------------------------------------------------------------------------


  energy-cutoff  :      520.00
  volume of cell :      361.21
      direct lattice vectors                 reciprocal lattice vectors
     3.914933101 -3.917568155  3.926887397     0.085153080 -0.127630198  0.042433452
     3.914933101  3.917568155  3.926887397     0.085153080  0.127630198  0.042433452
    -3.912461449  0.000000000  7.851308890    -0.085179824  0.000000000  0.084920518

  length of vectors
     6.789292015  6.789292015  8.772138045     0.159188920  0.159188920  0.120279246


 
 k-points in units of 2pi/SCALE and weight: Automatic mesh                          
   0.00000000  0.00000000  0.00000000       0.056
   0.02838436 -0.04254340  0.01414448       0.222
   0.05676872  0.00000000  0.02828897       0.111
  -0.00000000  0.08508680 -0.00000000       0.111
  -0.04258991  0.00000000  0.04246026       0.056
  -0.01420555 -0.04254340  0.05660474       0.222
   0.01417881  0.00000000  0.07074923       0.111
  -0.04258991  0.08508680  0.04246026       0.111
 
 k-points in reciprocal lattice and weights: Automatic mesh                          
   0.00000000  0.00000000  0.00000000       0.056
   0.33333333  0.00000000  0.00000000       0.222
   0.33333333  0.33333333  0.00000000       0.111
  -0.33333333  0.33333333  0.00000000       0.111
   0.00000000  0.00000000  0.50000000       0.056
   0.33333333  0.00000000  0.50000000       0.222
   0.33333333  0.33333333  0.50000000       0.111
  -0.33333333  0.33333333  0.50000000       0.111
 
 position of ions in fractional coordinates (direct lattice) 
   0.16413494  0.17152657  0.32790564
   0.32847343  0.33586506  0.67209436
   0.50000000  0.50000000  0.00000000
   0.67152657  0.66413494  0.32790564
   0.83586506  0.82847343  0.67209436
   0.00000000  0.00000000  0.00000000
   0.66666126  0.16666126  0.33444627
   0.83363513  0.33363513  0.66690522
   0.50000000  0.00000000  0.00000000
   0.33333874  0.83333874  0.66555373
   0.16636487  0.66636487  0.33309478
   0.00000000  0.50000000  0.00000000
   0.75165768  0.25165768  0.50282026
   0.58254262  0.08254262  0.16569807
   0.41745738  0.91745738  0.83430193
   0.24834232  0.74834232  0.49717974
   0.08330951  0.58330951  0.16846099
   0.91669049  0.41669049  0.83153901
   0.08276676  0.08385603  0.66689370
   0.91723324  0.91614397  0.33310630
   0.74489416  0.75510584  0.00000000
   0.58385603  0.58276676  0.66689370
   0.41614397  0.41723324  0.33310630
   0.25510584  0.24489416  0.00000000
   0.66664130  0.16664130  0.83343082
   0.50000000  0.00000000  0.50000000
   0.33335870  0.83335870  0.16656918
   0.16777261  0.66777261  0.83115340
   0.00000000  0.50000000  0.50000000
   0.83222739  0.33222739  0.16884660
 
 position of ions in cartesian coordinates  (Angst):
   0.03117416  0.02895722  3.89259344
  -0.02870251  0.02895722  7.88560285
   3.91493310  0.00000000  3.92688740
   3.94610726 -0.02895722  7.81948084
   3.88623059 -0.02895722 11.81249025
   0.00000000  0.00000000  0.00000000
   1.95389378 -1.95878408  5.89820465
   1.96054401 -1.95878408  9.81981779
   1.95746655 -1.95878408  1.96344370
   1.96351097  1.95878408  9.80687903
   1.95686074  1.95878408  5.88526590
   1.95746655  1.95878408  1.96344370
   1.96064760 -1.95878408  7.88770359
   1.95547696 -1.95878408  3.91266158
   1.96192780  1.95878408 11.79242210
   1.95675715  1.95878408  7.81738009
   1.95067173  1.95878408  3.94037711
   1.96673303 -1.95878408 11.76470657
  -1.95687885  0.00426730  5.89029738
   5.87428361 -0.00426730  9.81478631
   5.87239965  0.04000493  5.89033110
   1.95805425 -0.00426730  9.81718478
   1.95935051  0.00426730  5.88789891
   1.95746655 -0.04000493  1.96344370
   0.00147970 -1.95878408  9.81572978
   0.00123583 -1.95878408  5.88909814
   3.91592505  1.95878408  5.88935390
   0.01924801  1.95878408  9.80673410
   0.00123583  1.95878408  5.88909814
   3.89815674 -1.95878408  5.89834958
 


--------------------------------------------------------------------------------------------------------


 k-point  1 :   0.0000 0.0000 0.0000  plane waves:    9737
 k-point  2 :   0.3333 0.0000 0.0000  plane waves:    9731
 k-point  3 :   0.3333 0.3333 0.0000  plane waves:    9739
 k-point  4 :  -0.3333 0.3333 0.0000  plane waves:    9732
 k-point  5 :   0.0000 0.0000 0.5000  plane waves:    9760
 k-point  6 :   0.3333 0.0000 0.5000  plane waves:    9721
 k-point  7 :   0.3333 0.3333 0.5000  plane waves:    9712
 k-point  8 :  -0.3333 0.3333 0.5000  plane waves:    9712

 maximum and minimum number of plane-waves per node :       993      950

 maximum number of plane-waves:      9760
 maximum index in each direction: 
   IXMAX=   12   IYMAX=   12   IZMAX=   16
   IXMIN=  -12   IYMIN=  -12   IZMIN=  -16


 real space projection operators:
  total allocation   :      21863.75 KBytes
  max/ min on nodes  :       2194.28       2177.59


 parallel 3D FFT for wavefunctions:
    minimum data exchange during FFTs selected (reduces bandwidth)
 parallel 3D FFT for charge:
    minimum data exchange during FFTs selected (reduces bandwidth)


 total amount of memory used by VASP MPI-rank0    67832. kBytes
=======================================================================

   base      :      30000. kBytes
   nonlr-proj:       7168. kBytes
   fftplans  :       2919. kBytes
   grid      :       8208. kBytes
   one-center:        294. kBytes
   wavefun   :      19243. kBytes
 
     INWAV:  cpu time    0.0000: real time    0.0001
 Broyden mixing: mesh for mixing (old mesh)
   NGX = 25   NGY = 25   NGZ = 33
  (NGX  =100   NGY  =100   NGZ  =140)
  gives a total of  20625 points

 initial charge density was supplied:
 charge density of overlapping atoms calculated
 number of electron     219.0000000 magnetization      23.0000000
 keeping initial charge density in first step


--------------------------------------------------------------------------------------------------------


 Maximum index for non-local projection operator          891
 Maximum index for augmentation-charges         1412 (set IRDMAX)


--------------------------------------------------------------------------------------------------------


 First call to EWALD:  gamma=   0.249
 Maximum number of real-space cells 3x 3x 2
 Maximum number of reciprocal cells 3x 3x 3

    FEWALD:  cpu time    0.0018: real time    0.0027


--------------------------------------- Iteration      1(   1)  ---------------------------------------


    POTLOK:  cpu time    0.0854: real time    0.0874
    SETDIJ:  cpu time    0.0159: real time    0.0160
atom =   1  type =  1  l = 0
 
 onsite density matrix
 
spin component  1
 
  1.0989
 
spin component  2
 
  1.0989
 
 occupancies and eigenvectors
 
  o =  1.0989  v =  1.0000  0.0000      0.0000  0.0000
  o =  1.0989  v =  0.0000  1.0000      0.0000  0.0000
atom =   2  type =  1  l = 0
 
 onsite density matrix
 
spin component  1
 
  1.0989
 
spin component  2
 
  1.0989
 
 occupancies and eigenvectors
 
  o =  1.0989  v =  1.0000  0.0000      0.0000  0.0000
  o =  1.0989  v =  0.0000  1.0000      0.0000  0.0000
atom =   3  type =  1  l = 0
 
 onsite density matrix
 
spin component  1
 
  1.0989
 
spin component  2
 
  1.0989
 
 occupancies and eigenvectors
 
  o =  1.0989  v =  1.0000  0.0000      0.0000  0.0000
  o =  1.0989  v =  0.0000  1.0000      0.0000  0.0000
atom =   4  type =  1  l = 0
 
 onsite density matrix
 
spin component  1
 
  1.0989
 
spin component  2
 
  1.0989
 
 occupancies and eigenvectors
 
  o =  1.0989  v =  1.0000  0.0000      0.0000  0.0000
  o =  1.0989  v =  0.0000  1.0000      0.0000  0.0000
atom =   5  type =  1  l = 0
 
 onsite density matrix
 
spin component  1
 
  1.0989
 
spin component  2
 
  1.0989
 
 occupancies and eigenvectors
 
  o =  1.0989  v =  1.0000  0.0000      0.0000  0.0000
  o =  1.0989  v =  0.0000  1.0000      0.0000  0.0000
atom =   6  type =  1  l = 0
 
 onsite density matrix
 
spin component  1
 
  1.0989
 
spin component  2
 
  1.0989
 
 occupancies and eigenvectors
 
  o =  1.0989  v =  1.0000  0.0000      0.0000  0.0000
  o =  1.0989  v =  0.0000  1.0000      0.0000  0.0000
atom =   7  type =  2  l = 2
 
 onsite density matrix
 
spin component  1
 
  0.8272  0.0000  0.0000  0.0000  0.0000
  0.0000  0.8272  0.0000  0.0000  0.0000
  0.0000  0.0000  0.8272  0.0000  0.0000
  0.0000  0.0000  0.0000  0.8272  0.0000
  0.0000  0.0000  0.0000  0.0000  0.8272
 
spin component  2
 
  0.2256  0.0000  0.0000  0.0000  0.0000
  0.0000  0.2256  0.0000  0.0000  0.0000
  0.0000  0.0000  0.2256  0.0000  0.0000
  0.0000  0.0000  0.0000  0.2256  0.0000
  0.0000  0.0000  0.0000  0.0000  0.2256
 
 occupancies and eigenvectors
 
  o =  0.2256  v =  0.0000  0.0000  0.0000  0.0000  0.0000  0.0000  0.0000  1.0000  0.0000  0.0000      0.0000  0.0000  0.0000  0.0000  0.0000  0.0000  0.0000  0.0000  0.0000  0.0000
  o =  0.2256  v =  0.0000  0.0000  0.0000  0.0000  0.0000  1.0000  0.0000  0.0000  0.0000  0.0000      0.0000  0.0000  0.0000  0.0000  0.0000  0.0000  0.0000  0.0000  0.0000  0.0000
  o =  0.2256  v =  0.0000  0.0000  0.0000  0.0000  0.0000  0.0000  1.0000  0.0000  0.0000  0.0000      0.0000  0.0000  0.0000  0.0000  0.0000  0.0000  0.0000  0.0000  0.0000  0.0000
  o =  0.2256  v =  0.0000  0.0000  0.0000  0.0000  0.0000  0.0000  0.0000  0.0000  1.0000  0.0000      0.0000  0.0000  0.0000  0.0000  0.0000  0.0000  0.0000  0.0000  0.0000  0.0000
  o =  0.2256  v =  0.0000  0.0000  0.0000  0.0000  0.0000  0.0000  0.0000  0.0000  0.0000  1.0000      0.0000  0.0000  0.0000  0.0000  0.0000  0.0000  0.0000  0.0000  0.0000  0.0000
  o =  0.8272  v =  0.0000  1.0000  0.0000  0.0000  0.0000  0.0000  0.0000  0.0000  0.0000  0.0000      0.0000  0.0000  0.0000  0.0000  0.0000  0.0000  0.0000  0.0000  0.0000  0.0000
  o =  0.8272  v =  0.0000  0.0000  1.0000  0.0000  0.0000  0.0000  0.0000  0.0000  0.0000  0.0000      0.0000  0.0000  0.0000  0.0000  0.0000  0.0000  0.0000  0.0000  0.0000  0.0000
  o =  0.8272  v =  1.0000  0.0000  0.0000  0.0000  0.0000  0.0000  0.0000  0.0000  0.0000  0.0000      0.0000  0.0000  0.0000  0.0000  0.0000  0.0000  0.0000  0.0000  0.0000  0.0000
  o =  0.8272  v =  0.0000  0.0000  0.0000  1.0000  0.0000  0.0000  0.0000  0.0000  0.0000  0.0000      0.0000  0.0000  0.0000  0.0000  0.0000  0.0000  0.0000  0.0000  0.0000  0.0000
  o =  0.8272  v =  0.0000  0.0000  0.0000  0.0000  1.0000  0.0000  0.0000  0.0000  0.0000  0.0000      0.0000  0.0000  0.0000  0.0000  0.0000  0.0000  0.0000  0.0000  0.0000  0.0000
atom =   8  type =  2  l = 2
 
 onsite density matrix
 
spin component  1
 
  0.8272  0.0000  0.0000  0.0000  0.0000
  0.0000  0.8272  0.0000  0.0000  0.0000
  0.0000  0.0000  0.8272  0.0000  0.0000
  0.0000  0.0000  0.0000  0.8272  0.0000
  0.0000  0.0000  0.0000  0.0000  0.8272
 
spin component  2
 
  0.2256  0.0000  0.0000  0.0000  0.0000
  0.0000  0.2256  0.0000  0.0000  0.0000
  0.0000  0.0000  0.2256  0.0000  0.0000
  0.0000  0.0000  0.0000  0.2256  0.0000
  0.0000  0.0000  0.0000  0.0000  0.2256
 
 occupancies and eigenvectors
 
  o =  0.2256  v =  0.0000  0.0000  0.0000  0.0000  0.0000  0.0000  0.0000  1.0000  0.0000  0.0000      0.0000  0.0000  0.0000  0.0000  0.0000  0.0000  0.0000  0.0000  0.0000  0.0000
  o =  0.2256  v =  0.0000  0.0000  0.0000  0.0000  0.0000  1.0000  0.0000  0.0000  0.0000  0.0000      0.0000  0.0000  0.0000  0.0000  0.0000  0.0000  0.0000  0.0000  0.0000  0.0000
  o =  0.2256  v =  0.0000  0.0000  0.0000  0.0000  0.0000  0.0000  1.0000  0.0000  0.0000  0.0000      0.0000  0.0000  0.0000  0.0000  0.0000  0.0000  0.0000  0.0000  0.0000  0.0000
  o =  0.2256  v =  0.0000  0.0000  0.0000  0.0000  0.0000  0.0000  0.0000  0.0000  1.0000  0.0000      0.0000  0.0000  0.0000  0.0000  0.0000  0.0000  0.0000  0.0000  0.0000  0.0000
  o =  0.2256  v =  0.0000  0.0000  0.0000  0.0000  0.0000  0.0000  0.0000  0.0000  0.0000  1.0000      0.0000  0.0000  0.0000  0.0000  0.0000  0.0000  0.0000  0.0000  0.0000  0.0000
  o =  0.8272  v =  0.0000  1.0000  0.0000  0.0000  0.0000  0.0000  0.0000  0.0000  0.0000  0.0000      0.0000  0.0000  0.0000  0.0000  0.0000  0.0000  0.0000  0.0000  0.0000  0.0000
  o =  0.8272  v =  0.0000  0.0000  1.0000  0.0000  0.0000  0.0000  0.0000  0.0000  0.0000  0.0000      0.0000  0.0000  0.0000  0.0000  0.0000  0.0000  0.0000  0.0000  0.0000  0.0000
  o =  0.8272  v =  1.0000  0.0000  0.0000  0.0000  0.0000  0.0000  0.0000  0.0000  0.0000  0.0000      0.0000  0.0000  0.0000  0.0000  0.0000  0.0000  0.0000  0.0000  0.0000  0.0000
  o =  0.8272  v =  0.0000  0.0000  0.0000  1.0000  0.0000  0.0000  0.0000  0.0000  0.0000  0.0000      0.0000  0.0000  0.0000  0.0000  0.0000  0.0000  0.0000  0.0000  0.0000  0.0000
  o =  0.8272  v =  0.0000  0.0000  0.0000  0.0000  1.0000  0.0000  0.0000  0.0000  0.0000  0.0000      0.0000  0.0000  0.0000  0.0000  0.0000  0.0000  0.0000  0.0000  0.0000  0.0000
atom =   9  type =  2  l = 2
 
 onsite density matrix
 
spin component  1
 
  0.8272  0.0000  0.0000  0.0000  0.0000
  0.0000  0.8272  0.0000  0.0000  0.0000
  0.0000  0.0000  0.8272  0.0000  0.0000
  0.0000  0.0000  0.0000  0.8272  0.0000
  0.0000  0.0000  0.0000  0.0000  0.8272
 
spin component  2
 
  0.2256  0.0000  0.0000  0.0000  0.0000
  0.0000  0.2256  0.0000  0.0000  0.0000
  0.0000  0.0000  0.2256  0.0000  0.0000
  0.0000  0.0000  0.0000  0.2256  0.0000
  0.0000  0.0000  0.0000  0.0000  0.2256
 
 occupancies and eigenvectors
 
  o =  0.2256  v =  0.0000  0.0000  0.0000  0.0000  0.0000  0.0000  0.0000  1.0000  0.0000  0.0000      0.0000  0.0000  0.0000  0.0000  0.0000  0.0000  0.0000  0.0000  0.0000  0.0000
  o =  0.2256  v =  0.0000  0.0000  0.0000  0.0000  0.0000  1.0000  0.0000  0.0000  0.0000  0.0000      0.0000  0.0000  0.0000  0.0000  0.0000  0.0000  0.0000  0.0000  0.0000  0.0000
  o =  0.2256  v =  0.0000  0.0000  0.0000  0.0000  0.0000  0.0000  1.0000  0.0000  0.0000  0.0000      0.0000  0.0000  0.0000  0.0000  0.0000  0.0000  0.0000  0.0000  0.0000  0.0000
  o =  0.2256  v =  0.0000  0.0000  0.0000  0.0000  0.0000  0.0000  0.0000  0.0000  1.0000  0.0000      0.0000  0.0000  0.0000  0.0000  0.0000  0.0000  0.0000  0.0000  0.0000  0.0000
  o =  0.2256  v =  0.0000  0.0000  0.0000  0.0000  0.0000  0.0000  0.0000  0.0000  0.0000  1.0000      0.0000  0.0000  0.0000  0.0000  0.0000  0.0000  0.0000  0.0000  0.0000  0.0000
  o =  0.8272  v =  0.0000  1.0000  0.0000  0.0000  0.0000  0.0000  0.0000  0.0000  0.0000  0.0000      0.0000  0.0000  0.0000  0.0000  0.0000  0.0000  0.0000  0.0000  0.0000  0.0000
  o =  0.8272  v =  0.0000  0.0000  1.0000  0.0000  0.0000  0.0000  0.0000  0.0000  0.0000  0.0000      0.0000  0.0000  0.0000  0.0000  0.0000  0.0000  0.0000  0.0000  0.0000  0.0000
  o =  0.8272  v =  1.0000  0.0000  0.0000  0.0000  0.0000  0.0000  0.0000  0.0000  0.0000  0.0000      0.0000  0.0000  0.0000  0.0000  0.0000  0.0000  0.0000  0.0000  0.0000  0.0000
  o =  0.8272  v =  0.0000  0.0000  0.0000  1.0000  0.0000  0.0000  0.0000  0.0000  0.0000  0.0000      0.0000  0.0000  0.0000  0.0000  0.0000  0.0000  0.0000  0.0000  0.0000  0.0000
  o =  0.8272  v =  0.0000  0.0000  0.0000  0.0000  1.0000  0.0000  0.0000  0.0000  0.0000  0.0000      0.0000  0.0000  0.0000  0.0000  0.0000  0.0000  0.0000  0.0000  0.0000  0.0000
atom =  10  type =  2  l = 2
 
 onsite density matrix
 
spin component  1
 
  0.8272  0.0000  0.0000  0.0000  0.0000
  0.0000  0.8272  0.0000  0.0000  0.0000
  0.0000  0.0000  0.8272  0.0000  0.0000
  0.0000  0.0000  0.0000  0.8272  0.0000
  0.0000  0.0000  0.0000  0.0000  0.8272
 
spin component  2
 
  0.2256  0.0000  0.0000  0.0000  0.0000
  0.0000  0.2256  0.0000  0.0000  0.0000
  0.0000  0.0000  0.2256  0.0000  0.0000
  0.0000  0.0000  0.0000  0.2256  0.0000
  0.0000  0.0000  0.0000  0.0000  0.2256
 
 occupancies and eigenvectors
 
  o =  0.2256  v =  0.0000  0.0000  0.0000  0.0000  0.0000  0.0000  0.0000  1.0000  0.0000  0.0000      0.0000  0.0000  0.0000  0.0000  0.0000  0.0000  0.0000  0.0000  0.0000  0.0000
  o =  0.2256  v =  0.0000  0.0000  0.0000  0.0000  0.0000  1.0000  0.0000  0.0000  0.0000  0.0000      0.0000  0.0000  0.0000  0.0000  0.0000  0.0000  0.0000  0.0000  0.0000  0.0000
  o =  0.2256  v =  0.0000  0.0000  0.0000  0.0000  0.0000  0.0000  1.0000  0.0000  0.0000  0.0000      0.0000  0.0000  0.0000  0.0000  0.0000  0.0000  0.0000  0.0000  0.0000  0.0000
  o =  0.2256  v =  0.0000  0.0000  0.0000  0.0000  0.0000  0.0000  0.0000  0.0000  1.0000  0.0000      0.0000  0.0000  0.0000  0.0000  0.0000  0.0000  0.0000  0.0000  0.0000  0.0000
  o =  0.2256  v =  0.0000  0.0000  0.0000  0.0000  0.0000  0.0000  0.0000  0.0000  0.0000  1.0000      0.0000  0.0000  0.0000  0.0000  0.0000  0.0000  0.0000  0.0000  0.0000  0.0000
  o =  0.8272  v =  0.0000  1.0000  0.0000  0.0000  0.0000  0.0000  0.0000  0.0000  0.0000  0.0000      0.0000  0.0000  0.0000  0.0000  0.0000  0.0000  0.0000  0.0000  0.0000  0.0000
  o =  0.8272  v =  0.0000  0.0000  1.0000  0.0000  0.0000  0.0000  0.0000  0.0000  0.0000  0.0000      0.0000  0.0000  0.0000  0.0000  0.0000  0.0000  0.0000  0.0000  0.0000  0.0000
  o =  0.8272  v =  1.0000  0.0000  0.0000  0.0000  0.0000  0.0000  0.0000  0.0000  0.0000  0.0000      0.0000  0.0000  0.0000  0.0000  0.0000  0.0000  0.0000  0.0000  0.0000  0.0000
  o =  0.8272  v =  0.0000  0.0000  0.0000  1.0000  0.0000  0.0000  0.0000  0.0000  0.0000  0.0000      0.0000  0.0000  0.0000  0.0000  0.0000  0.0000  0.0000  0.0000  0.0000  0.0000
  o =  0.8272  v =  0.0000  0.0000  0.0000  0.0000  1.0000  0.0000  0.0000  0.0000  0.0000  0.0000      0.0000  0.0000  0.0000  0.0000  0.0000  0.0000  0.0000  0.0000  0.0000  0.0000
atom =  11  type =  2  l = 2
 
 onsite density matrix
 
spin component  1
 
  0.8272  0.0000  0.0000  0.0000  0.0000
  0.0000  0.8272  0.0000  0.0000  0.0000
  0.0000  0.0000  0.8272  0.0000  0.0000
  0.0000  0.0000  0.0000  0.8272  0.0000
  0.0000  0.0000  0.0000  0.0000  0.8272
 
spin component  2
 
  0.2256  0.0000  0.0000  0.0000  0.0000
  0.0000  0.2256  0.0000  0.0000  0.0000
  0.0000  0.0000  0.2256  0.0000  0.0000
  0.0000  0.0000  0.0000  0.2256  0.0000
  0.0000  0.0000  0.0000  0.0000  0.2256
 
 occupancies and eigenvectors
 
  o =  0.2256  v =  0.0000  0.0000  0.0000  0.0000  0.0000  0.0000  0.0000  1.0000  0.0000  0.0000      0.0000  0.0000  0.0000  0.0000  0.0000  0.0000  0.0000  0.0000  0.0000  0.0000
  o =  0.2256  v =  0.0000  0.0000  0.0000  0.0000  0.0000  1.0000  0.0000  0.0000  0.0000  0.0000      0.0000  0.0000  0.0000  0.0000  0.0000  0.0000  0.0000  0.0000  0.0000  0.0000
  o =  0.2256  v =  0.0000  0.0000  0.0000  0.0000  0.0000  0.0000  1.0000  0.0000  0.0000  0.0000      0.0000  0.0000  0.0000  0.0000  0.0000  0.0000  0.0000  0.0000  0.0000  0.0000
  o =  0.2256  v =  0.0000  0.0000  0.0000  0.0000  0.0000  0.0000  0.0000  0.0000  1.0000  0.0000      0.0000  0.0000  0.0000  0.0000  0.0000  0.0000  0.0000  0.0000  0.0000  0.0000
  o =  0.2256  v =  0.0000  0.0000  0.0000  0.0000  0.0000  0.0000  0.0000  0.0000  0.0000  1.0000      0.0000  0.0000  0.0000  0.0000  0.0000  0.0000  0.0000  0.0000  0.0000  0.0000
  o =  0.8272  v =  0.0000  1.0000  0.0000  0.0000  0.0000  0.0000  0.0000  0.0000  0.0000  0.0000      0.0000  0.0000  0.0000  0.0000  0.0000  0.0000  0.0000  0.0000  0.0000  0.0000
  o =  0.8272  v =  0.0000  0.0000  1.0000  0.0000  0.0000  0.0000  0.0000  0.0000  0.0000  0.0000      0.0000  0.0000  0.0000  0.0000  0.0000  0.0000  0.0000  0.0000  0.0000  0.0000
  o =  0.8272  v =  1.0000  0.0000  0.0000  0.0000  0.0000  0.0000  0.0000  0.0000  0.0000  0.0000      0.0000  0.0000  0.0000  0.0000  0.0000  0.0000  0.0000  0.0000  0.0000  0.0000
  o =  0.8272  v =  0.0000  0.0000  0.0000  1.0000  0.0000  0.0000  0.0000  0.0000  0.0000  0.0000      0.0000  0.0000  0.0000  0.0000  0.0000  0.0000  0.0000  0.0000  0.0000  0.0000
  o =  0.8272  v =  0.0000  0.0000  0.0000  0.0000  1.0000  0.0000  0.0000  0.0000  0.0000  0.0000      0.0000  0.0000  0.0000  0.0000  0.0000  0.0000  0.0000  0.0000  0.0000  0.0000
atom =  12  type =  3  l = 2
 
 onsite density matrix
 
spin component  1
 
  1.1008  0.0000  0.0000  0.0000  0.0000
  0.0000  1.1008  0.0000  0.0000  0.0000
  0.0000  0.0000  1.1008  0.0000  0.0000
  0.0000  0.0000  0.0000  1.1008  0.0000
  0.0000  0.0000  0.0000  0.0000  1.1008
 
spin component  2
 
  0.5927  0.0000  0.0000  0.0000  0.0000
  0.0000  0.5927  0.0000  0.0000  0.0000
  0.0000  0.0000  0.5927  0.0000  0.0000
  0.0000  0.0000  0.0000  0.5927  0.0000
  0.0000  0.0000  0.0000  0.0000  0.5927
 
 occupancies and eigenvectors
 
  o =  0.5927  v =  0.0000  0.0000  0.0000  0.0000  0.0000  1.0000  0.0000  0.0000  0.0000  0.0000      0.0000  0.0000  0.0000  0.0000  0.0000  0.0000  0.0000  0.0000  0.0000  0.0000
  o =  0.5927  v =  0.0000  0.0000  0.0000  0.0000  0.0000  0.0000  1.0000  0.0000  0.0000  0.0000      0.0000  0.0000  0.0000  0.0000  0.0000  0.0000  0.0000  0.0000  0.0000  0.0000
  o =  0.5927  v =  0.0000  0.0000  0.0000  0.0000  0.0000  0.0000  0.0000  1.0000  0.0000  0.0000      0.0000  0.0000  0.0000  0.0000  0.0000  0.0000  0.0000  0.0000  0.0000  0.0000
  o =  0.5927  v =  0.0000  0.0000  0.0000  0.0000  0.0000  0.0000  0.0000  0.0000  1.0000  0.0000      0.0000  0.0000  0.0000  0.0000  0.0000  0.0000  0.0000  0.0000  0.0000  0.0000
  o =  0.5927  v =  0.0000  0.0000  0.0000  0.0000  0.0000  0.0000  0.0000  0.0000  0.0000  1.0000      0.0000  0.0000  0.0000  0.0000  0.0000  0.0000  0.0000  0.0000  0.0000  0.0000
  o =  1.1008  v =  1.0000  0.0000  0.0000  0.0000  0.0000  0.0000  0.0000  0.0000  0.0000  0.0000      0.0000  0.0000  0.0000  0.0000  0.0000  0.0000  0.0000  0.0000  0.0000  0.0000
  o =  1.1008  v =  0.0000  1.0000  0.0000  0.0000  0.0000  0.0000  0.0000  0.0000  0.0000  0.0000      0.0000  0.0000  0.0000  0.0000  0.0000  0.0000  0.0000  0.0000  0.0000  0.0000
  o =  1.1008  v =  0.0000  0.0000  1.0000  0.0000  0.0000  0.0000  0.0000  0.0000  0.0000  0.0000      0.0000  0.0000  0.0000  0.0000  0.0000  0.0000  0.0000  0.0000  0.0000  0.0000
  o =  1.1008  v =  0.0000  0.0000  0.0000  1.0000  0.0000  0.0000  0.0000  0.0000  0.0000  0.0000      0.0000  0.0000  0.0000  0.0000  0.0000  0.0000  0.0000  0.0000  0.0000  0.0000
  o =  1.1008  v =  0.0000  0.0000  0.0000  0.0000  1.0000  0.0000  0.0000  0.0000  0.0000  0.0000      0.0000  0.0000  0.0000  0.0000  0.0000  0.0000  0.0000  0.0000  0.0000  0.0000
atom =  13  type =  4  l = 0
 
 onsite density matrix
 
spin component  1
 
  0.8190
 
spin component  2
 
  0.8190
 
 occupancies and eigenvectors
 
  o =  0.8190  v =  1.0000  0.0000      0.0000  0.0000
  o =  0.8190  v =  0.0000  1.0000      0.0000  0.0000
atom =  14  type =  4  l = 0
 
 onsite density matrix
 
spin component  1
 
  0.8190
 
spin component  2
 
  0.8190
 
 occupancies and eigenvectors
 
  o =  0.8190  v =  1.0000  0.0000      0.0000  0.0000
  o =  0.8190  v =  0.0000  1.0000      0.0000  0.0000
atom =  15  type =  4  l = 0
 
 onsite density matrix
 
spin component  1
 
  0.8190
 
spin component  2
 
  0.8190
 
 occupancies and eigenvectors
 
  o =  0.8190  v =  1.0000  0.0000      0.0000  0.0000
  o =  0.8190  v =  0.0000  1.0000      0.0000  0.0000
atom =  16  type =  4  l = 0
 
 onsite density matrix
 
spin component  1
 
  0.8190
 
spin component  2
 
  0.8190
 
 occupancies and eigenvectors
 
  o =  0.8190  v =  1.0000  0.0000      0.0000  0.0000
  o =  0.8190  v =  0.0000  1.0000      0.0000  0.0000
atom =  17  type =  4  l = 0
 
 onsite density matrix
 
spin component  1
 
  0.8190
 
spin component  2
 
  0.8190
 
 occupancies and eigenvectors
 
  o =  0.8190  v =  1.0000  0.0000      0.0000  0.0000
  o =  0.8190  v =  0.0000  1.0000      0.0000  0.0000
atom =  18  type =  4  l = 0
 
 onsite density matrix
 
spin component  1
 
  0.8190
 
spin component  2
 
  0.8190
 
 occupancies and eigenvectors
 
  o =  0.8190  v =  1.0000  0.0000      0.0000  0.0000
  o =  0.8190  v =  0.0000  1.0000      0.0000  0.0000
atom =  19  type =  4  l = 0
 
 onsite density matrix
 
spin component  1
 
  0.8190
 
spin component  2
 
  0.8190
 
 occupancies and eigenvectors
 
  o =  0.8190  v =  1.0000  0.0000      0.0000  0.0000
  o =  0.8190  v =  0.0000  1.0000      0.0000  0.0000
atom =  20  type =  4  l = 0
 
 onsite density matrix
 
spin component  1
 
  0.8190
 
spin component  2
 
  0.8190
 
 occupancies and eigenvectors
 
  o =  0.8190  v =  1.0000  0.0000      0.0000  0.0000
  o =  0.8190  v =  0.0000  1.0000      0.0000  0.0000
atom =  21  type =  4  l = 0
 
 onsite density matrix
 
spin component  1
 
  0.8190
 
spin component  2
 
  0.8190
 
 occupancies and eigenvectors
 
  o =  0.8190  v =  1.0000  0.0000      0.0000  0.0000
  o =  0.8190  v =  0.0000  1.0000      0.0000  0.0000
atom =  22  type =  4  l = 0
 
 onsite density matrix
 
spin component  1
 
  0.8190
 
spin component  2
 
  0.8190
 
 occupancies and eigenvectors
 
  o =  0.8190  v =  1.0000  0.0000      0.0000  0.0000
  o =  0.8190  v =  0.0000  1.0000      0.0000  0.0000
atom =  23  type =  4  l = 0
 
 onsite density matrix
 
spin component  1
 
  0.8190
 
spin component  2
 
  0.8190
 
 occupancies and eigenvectors
 
  o =  0.8190  v =  1.0000  0.0000      0.0000  0.0000
  o =  0.8190  v =  0.0000  1.0000      0.0000  0.0000
atom =  24  type =  4  l = 0
 
 onsite density matrix
 
spin component  1
 
  0.8190
 
spin component  2
 
  0.8190
 
 occupancies and eigenvectors
 
  o =  0.8190  v =  1.0000  0.0000      0.0000  0.0000
  o =  0.8190  v =  0.0000  1.0000      0.0000  0.0000
atom =  25  type =  4  l = 0
 
 onsite density matrix
 
spin component  1
 
  0.8190
 
spin component  2
 
  0.8190
 
 occupancies and eigenvectors
 
  o =  0.8190  v =  1.0000  0.0000      0.0000  0.0000
  o =  0.8190  v =  0.0000  1.0000      0.0000  0.0000
atom =  26  type =  4  l = 0
 
 onsite density matrix
 
spin component  1
 
  0.8190
 
spin component  2
 
  0.8190
 
 occupancies and eigenvectors
 
  o =  0.8190  v =  1.0000  0.0000      0.0000  0.0000
  o =  0.8190  v =  0.0000  1.0000      0.0000  0.0000
atom =  27  type =  4  l = 0
 
 onsite density matrix
 
spin component  1
 
  0.8190
 
spin component  2
 
  0.8190
 
 occupancies and eigenvectors
 
  o =  0.8190  v =  1.0000  0.0000      0.0000  0.0000
  o =  0.8190  v =  0.0000  1.0000      0.0000  0.0000
atom =  28  type =  4  l = 0
 
 onsite density matrix
 
spin component  1
 
  0.8190
 
spin component  2
 
  0.8190
 
 occupancies and eigenvectors
 
  o =  0.8190  v =  1.0000  0.0000      0.0000  0.0000
  o =  0.8190  v =  0.0000  1.0000      0.0000  0.0000
atom =  29  type =  4  l = 0
 
 onsite density matrix
 
spin component  1
 
  0.8190
 
spin component  2
 
  0.8190
 
 occupancies and eigenvectors
 
  o =  0.8190  v =  1.0000  0.0000      0.0000  0.0000
  o =  0.8190  v =  0.0000  1.0000      0.0000  0.0000
atom =  30  type =  4  l = 0
 
 onsite density matrix
 
spin component  1
 
  0.8190
 
spin component  2
 
  0.8190
 
 occupancies and eigenvectors
 
  o =  0.8190  v =  1.0000  0.0000      0.0000  0.0000
  o =  0.8190  v =  0.0000  1.0000      0.0000  0.0000
     EDDAV:  cpu time    2.8574: real time    2.8694
 BZINTS: Fermi energy: 30.964657;219.000000 electrons
         Band energy:3250.042791;  BLOECHL correction: -0.184865
       DOS:  cpu time    0.0110: real time    0.0123
    --------------------------------------------
      LOOP:  cpu time    2.9697: real time    2.9852

 eigenvalue-minimisations  :  4912
 total energy-change (2. order) : 0.3553772E+04  (-0.7577658E+04)
 number of electron     219.0000000 magnetization      23.0000000
 augmentation part      219.0000000 magnetization      23.0000000

 Free energy of the ion-electron system (eV)
  ---------------------------------------------------
  alpha Z        PSCENC =       964.34147155
  Ewald energy   TEWEN  =    -14609.41179258
  -Hartree energ DENC   =     -2896.94733926
  -exchange      EXHF   =         0.00000000
  -V(xc)+E(xc)   XCENC  =       666.87671674
  PAW double counting   =     13087.43818639   -13048.29315604
  entropy T*S    EENTRO =         0.00000000
  eigenvalues    EBANDS =      3250.04279135
  atomic energy  EATOM  =     16139.72541369
  Solvation  Ediel_sol  =         0.00000000
  ---------------------------------------------------
  free energy    TOTEN  =      3553.77229184 eV

  energy without entropy =     3553.77229184  energy(sigma->0) =     3553.77229184


--------------------------------------------------------------------------------------------------------




--------------------------------------- Iteration      1(   2)  ---------------------------------------


     EDDAV:  cpu time    2.9400: real time    2.9510
 BZINTS: Fermi energy: 16.228854;219.000000 electrons
         Band energy: 935.212820;  BLOECHL correction: -0.054931
       DOS:  cpu time    0.0107: real time    0.0107
    --------------------------------------------
      LOOP:  cpu time    2.9507: real time    2.9617

 eigenvalue-minimisations  :  5152
 total energy-change (2. order) :-0.2314830E+04  (-0.2076159E+04)
 number of electron     219.0000000 magnetization      23.0000000
 augmentation part      219.0000000 magnetization      23.0000000

 Free energy of the ion-electron system (eV)
  ---------------------------------------------------
  alpha Z        PSCENC =       964.34147155
  Ewald energy   TEWEN  =    -14609.41179258
  -Hartree energ DENC   =     -2896.94733926
  -exchange      EXHF   =         0.00000000
  -V(xc)+E(xc)   XCENC  =       666.87671674
  PAW double counting   =     13087.43818639   -13048.29315604
  entropy T*S    EENTRO =         0.00000000
  eigenvalues    EBANDS =       935.21281983
  atomic energy  EATOM  =     16139.72541369
  Solvation  Ediel_sol  =         0.00000000
  ---------------------------------------------------
  free energy    TOTEN  =      1238.94232032 eV

  energy without entropy =     1238.94232032  energy(sigma->0) =     1238.94232032


--------------------------------------------------------------------------------------------------------




--------------------------------------- Iteration      1(   3)  ---------------------------------------


     EDDAV:  cpu time    3.1002: real time    3.1123
 BZINTS: Fermi energy: 11.887615;219.000000 electrons
         Band energy: -44.270742;  BLOECHL correction: -0.027143
       DOS:  cpu time    0.0111: real time    0.0111
    --------------------------------------------
      LOOP:  cpu time    3.1112: real time    3.1235

 eigenvalue-minimisations  :  5488
 total energy-change (2. order) :-0.9794836E+03  (-0.8818851E+03)
 number of electron     219.0000000 magnetization      23.0000000
 augmentation part      219.0000000 magnetization      23.0000000

 Free energy of the ion-electron system (eV)
  ---------------------------------------------------
  alpha Z        PSCENC =       964.34147155
  Ewald energy   TEWEN  =    -14609.41179258
  -Hartree energ DENC   =     -2896.94733926
  -exchange      EXHF   =         0.00000000
  -V(xc)+E(xc)   XCENC  =       666.87671674
  PAW double counting   =     13087.43818639   -13048.29315604
  entropy T*S    EENTRO =         0.00000000
  eigenvalues    EBANDS =       -44.27074162
  atomic energy  EATOM  =     16139.72541369
  Solvation  Ediel_sol  =         0.00000000
  ---------------------------------------------------
  free energy    TOTEN  =       259.45875887 eV

  energy without entropy =      259.45875887  energy(sigma->0) =      259.45875887


--------------------------------------------------------------------------------------------------------




--------------------------------------- Iteration      1(   4)  ---------------------------------------


     EDDAV:  cpu time    3.9348: real time    3.9478
 BZINTS: Fermi energy: 11.110942;219.000000 electrons
         Band energy:-472.317420;  BLOECHL correction: -0.008625
       DOS:  cpu time    0.0114: real time    0.0114
    --------------------------------------------
      LOOP:  cpu time    3.9462: real time    3.9592

 eigenvalue-minimisations  :  7368
 total energy-change (2. order) :-0.4280467E+03  (-0.4007686E+03)
 number of electron     219.0000000 magnetization      23.0000000
 augmentation part      219.0000000 magnetization      23.0000000

 Free energy of the ion-electron system (eV)
  ---------------------------------------------------
  alpha Z        PSCENC =       964.34147155
  Ewald energy   TEWEN  =    -14609.41179258
  -Hartree energ DENC   =     -2896.94733926
  -exchange      EXHF   =         0.00000000
  -V(xc)+E(xc)   XCENC  =       666.87671674
  PAW double counting   =     13087.43818639   -13048.29315604
  entropy T*S    EENTRO =         0.00000000
  eigenvalues    EBANDS =      -472.31741985
  atomic energy  EATOM  =     16139.72541369
  Solvation  Ediel_sol  =         0.00000000
  ---------------------------------------------------
  free energy    TOTEN  =      -168.58791936 eV

  energy without entropy =     -168.58791936  energy(sigma->0) =     -168.58791936


--------------------------------------------------------------------------------------------------------




--------------------------------------- Iteration      1(   5)  ---------------------------------------


     EDDAV:  cpu time    4.3586: real time    4.3738
 BZINTS: Fermi energy: 10.782993;219.000000 electrons
         Band energy:-565.186542;  BLOECHL correction: -0.066184
       DOS:  cpu time    0.0108: real time    0.0108
    CHARGE:  cpu time    0.1349: real time    0.1354
    MIXING:  cpu time    0.0039: real time    0.0041
    --------------------------------------------
      LOOP:  cpu time    4.5083: real time    4.5242

 eigenvalue-minimisations  :  8280
 total energy-change (2. order) :-0.9286912E+02  (-0.8963972E+02)
 number of electron     218.9999993 magnetization      20.9329539
 augmentation part       23.3614475 magnetization      13.9313821

 Broyden mixing:
  rms(total) = 0.68244E+01    rms(broyden)= 0.68239E+01
  rms(prec ) = 0.84919E+01
  weight for this iteration     100.00

 Free energy of the ion-electron system (eV)
  ---------------------------------------------------
  alpha Z        PSCENC =       964.34147155
  Ewald energy   TEWEN  =    -14609.41179258
  -Hartree energ DENC   =     -2896.94733926
  -exchange      EXHF   =         0.00000000
  -V(xc)+E(xc)   XCENC  =       666.87671674
  PAW double counting   =     13087.43818639   -13048.29315604
  entropy T*S    EENTRO =         0.00000000
  eigenvalues    EBANDS =      -565.18654170
  atomic energy  EATOM  =     16139.72541369
  Solvation  Ediel_sol  =         0.00000000
  ---------------------------------------------------
  free energy    TOTEN  =      -261.45704121 eV

  energy without entropy =     -261.45704121  energy(sigma->0) =     -261.45704121


--------------------------------------------------------------------------------------------------------




--------------------------------------- Iteration      1(   6)  ---------------------------------------


    POTLOK:  cpu time    0.0829: real time    0.0832
    SETDIJ:  cpu time    0.0157: real time    0.0157
atom =   1  type =  1  l = 0
 
 onsite density matrix
 
spin component  1
 
  1.0560
 
spin component  2
 
  1.0560
 
 occupancies and eigenvectors
 
  o =  1.0560  v =  1.0000  0.0000      0.0000  0.0000
  o =  1.0560  v =  0.0000  1.0000      0.0000  0.0000
atom =   2  type =  1  l = 0
 
 onsite density matrix
 
spin component  1
 
  1.0560
 
spin component  2
 
  1.0560
 
 occupancies and eigenvectors
 
  o =  1.0560  v =  1.0000  0.0000      0.0000  0.0000
  o =  1.0560  v =  0.0000  1.0000      0.0000  0.0000
atom =   3  type =  1  l = 0
 
 onsite density matrix
 
spin component  1
 
  1.0567
 
spin component  2
 
  1.0567
 
 occupancies and eigenvectors
 
  o =  1.0567  v =  1.0000  0.0000      0.0000  0.0000
  o =  1.0567  v =  0.0000  1.0000      0.0000  0.0000
atom =   4  type =  1  l = 0
 
 onsite density matrix
 
spin component  1
 
  1.0560
 
spin component  2
 
  1.0560
 
 occupancies and eigenvectors
 
  o =  1.0560  v =  1.0000  0.0000      0.0000  0.0000
  o =  1.0560  v =  0.0000  1.0000      0.0000  0.0000
atom =   5  type =  1  l = 0
 
 onsite density matrix
 
spin component  1
 
  1.0560
 
spin component  2
 
  1.0560
 
 occupancies and eigenvectors
 
  o =  1.0560  v =  1.0000  0.0000      0.0000  0.0000
  o =  1.0560  v =  0.0000  1.0000      0.0000  0.0000
atom =   6  type =  1  l = 0
 
 onsite density matrix
 
spin component  1
 
  1.0567
 
spin component  2
 
  1.0567
 
 occupancies and eigenvectors
 
  o =  1.0567  v =  1.0000  0.0000      0.0000  0.0000
  o =  1.0567  v =  0.0000  1.0000      0.0000  0.0000
atom =   7  type =  2  l = 2
 
 onsite density matrix
 
spin component  1
 
  0.9459 -0.0049  0.0000 -0.0000  0.0000
 -0.0049  0.9420 -0.0000  0.0000  0.0000
  0.0000 -0.0000  0.4915  0.0002  0.0214
 -0.0000  0.0000  0.0002  0.9389  0.0081
  0.0000  0.0000  0.0214  0.0081  0.4341
 
spin component  2
 
  0.0342  0.0035 -0.0000 -0.0000 -0.0000
  0.0035  0.0323 -0.0000 -0.0000  0.0000
 -0.0000 -0.0000  0.3493 -0.0001 -0.0138
 -0.0000 -0.0000 -0.0001  0.0371 -0.0050
 -0.0000  0.0000 -0.0138 -0.0050  0.3895
 
 occupancies and eigenvectors
 
  o =  0.0296  v =  0.0000  0.0000  0.0000  0.0000  0.0000  0.6047 -0.7964  0.0000  0.0000  0.0000      0.0000  0.0000  0.0000  0.0000  0.0000  0.0000  0.0000  0.0000  0.0000  0.0000
  o =  0.0369  v =  0.0000  0.0000  0.0000  0.0000  0.0000  0.7964  0.6047  0.0000  0.0000  0.0000      0.0000  0.0000  0.0000  0.0000  0.0000  0.0000  0.0000  0.0000  0.0000  0.0000
  o =  0.0370  v =  0.0000  0.0000  0.0000  0.0000  0.0000 -0.0000 -0.0000  0.0008  0.9999  0.0142      0.0000  0.0000  0.0000  0.0000  0.0000  0.0000  0.0000  0.0000  0.0000  0.0000
  o =  0.3450  v =  0.0000  0.0000  0.0000  0.0000  0.0000 -0.0000  0.0000  0.9551 -0.0050  0.2961      0.0000  0.0000  0.0000  0.0000  0.0000  0.0000  0.0000  0.0000  0.0000  0.0000
  o =  0.3938  v =  0.0000  0.0000  0.0000  0.0000  0.0000  0.0000  0.0000 -0.2962 -0.0133  0.9550      0.0000  0.0000  0.0000  0.0000  0.0000  0.0000  0.0000  0.0000  0.0000  0.0000
  o =  0.4269  v =  0.0000 -0.0000  0.3149  0.0150 -0.9490  0.0000  0.0000  0.0000  0.0000  0.0000      0.0000  0.0000  0.0000  0.0000  0.0000  0.0000  0.0000  0.0000  0.0000  0.0000
  o =  0.4986  v =  0.0000 -0.0000 -0.9491  0.0062 -0.3149  0.0000  0.0000  0.0000  0.0000  0.0000      0.0000  0.0000  0.0000  0.0000  0.0000  0.0000  0.0000  0.0000  0.0000  0.0000
  o =  0.9387  v =  0.5621  0.8270 -0.0000  0.0000 -0.0000  0.0000  0.0000  0.0000  0.0000  0.0000      0.0000  0.0000  0.0000  0.0000  0.0000  0.0000  0.0000  0.0000  0.0000  0.0000
  o =  0.9390  v =  0.0000  0.0000 -0.0011 -0.9999 -0.0161  0.0000  0.0000  0.0000  0.0000  0.0000      0.0000  0.0000  0.0000  0.0000  0.0000  0.0000  0.0000  0.0000  0.0000  0.0000
  o =  0.9492  v = -0.8270  0.5621 -0.0000  0.0000 -0.0000  0.0000  0.0000  0.0000  0.0000  0.0000      0.0000  0.0000  0.0000  0.0000  0.0000  0.0000  0.0000  0.0000  0.0000  0.0000
atom =   8  type =  2  l = 2
 
 onsite density matrix
 
spin component  1
 
  0.9495 -0.0030 -0.0000  0.0000  0.0000
 -0.0030  0.9363  0.0000 -0.0000 -0.0000
 -0.0000  0.0000  0.4431  0.0063 -0.0152
  0.0000 -0.0000  0.0063  0.9454 -0.0042
  0.0000 -0.0000 -0.0152 -0.0042  0.4897
 
spin component  2
 
  0.0298  0.0021 -0.0000 -0.0000  0.0000
  0.0021  0.0397 -0.0000 -0.0000 -0.0000
 -0.0000 -0.0000  0.3871 -0.0039  0.0097
 -0.0000 -0.0000 -0.0039  0.0350  0.0028
  0.0000 -0.0000  0.0097  0.0028  0.3565
 
 occupancies and eigenvectors
 
  o =  0.0294  v =  0.0000  0.0000  0.0000  0.0000  0.0000  0.9790 -0.2039  0.0000  0.0000 -0.0000      0.0000  0.0000  0.0000  0.0000  0.0000  0.0000  0.0000  0.0000  0.0000  0.0000
  o =  0.0349  v =  0.0000  0.0000  0.0000  0.0000  0.0000  0.0000 -0.0000 -0.0113 -0.9999  0.0090      0.0000  0.0000  0.0000  0.0000  0.0000  0.0000  0.0000  0.0000  0.0000  0.0000
  o =  0.0401  v =  0.0000  0.0000  0.0000  0.0000  0.0000 -0.2039 -0.9790  0.0000  0.0000 -0.0000      0.0000  0.0000  0.0000  0.0000  0.0000  0.0000  0.0000  0.0000  0.0000  0.0000
  o =  0.3537  v =  0.0000  0.0000  0.0000  0.0000  0.0000  0.0000  0.0000  0.2782 -0.0118 -0.9605      0.0000  0.0000  0.0000  0.0000  0.0000  0.0000  0.0000  0.0000  0.0000  0.0000
  o =  0.3900  v =  0.0000  0.0000  0.0000  0.0000  0.0000  0.0000 -0.0000 -0.9605  0.0083 -0.2783      0.0000  0.0000  0.0000  0.0000  0.0000  0.0000  0.0000  0.0000  0.0000  0.0000
  o =  0.4385  v = -0.0000 -0.0000 -0.9587  0.0096 -0.2842  0.0000  0.0000  0.0000  0.0000  0.0000      0.0000  0.0000  0.0000  0.0000  0.0000  0.0000  0.0000  0.0000  0.0000  0.0000
  o =  0.4941  v = -0.0000  0.0000 -0.2841  0.0129  0.9587  0.0000  0.0000  0.0000  0.0000  0.0000      0.0000  0.0000  0.0000  0.0000  0.0000  0.0000  0.0000  0.0000  0.0000  0.0000
[...]
  0.000  -0.000  -0.000  -0.001  -0.000  -0.000  -0.001  -0.000  -0.000   0.001  -0.000   0.000  -0.000   0.000  -0.000  -0.000
 -0.000  -0.000  -0.000   0.000   0.001  -0.000   0.000   0.000  -0.001   0.000   0.000   0.000   0.000   0.000  -0.000  -0.000
 -0.000   0.000   0.000  -0.000  -0.000   0.000   0.000  -0.000  -0.000  -0.000   0.000   0.000  -0.001   0.000   0.000  -0.000
  0.000   0.000  -0.000  -0.000  -0.001   0.000  -0.000  -0.001   0.000  -0.000   0.000  -0.000   0.000   0.000   0.000  -0.000
 -0.000   0.000  -0.000   0.000   0.000  -0.001  -0.000   0.000   0.000  -0.001   0.001   0.000  -0.001   0.000   0.000  -0.000
 -0.000  -0.004   0.000  -0.000   0.001  -0.000   0.000  -0.001  -0.001   0.002  -0.000   0.002   0.000   0.000  -0.000   0.000
  0.000   0.000  -0.000   0.000   0.000  -0.001  -0.000   0.000   0.001   0.000  -0.001  -0.000   0.000  -0.000  -0.000   0.000
 -0.000   0.001  -0.000   0.000   0.000   0.000   0.001   0.000   0.000  -0.001   0.000  -0.001   0.000  -0.000   0.000  -0.000
  0.000   0.000   0.000  -0.000  -0.000   0.000  -0.000  -0.001   0.001  -0.000  -0.001  -0.000  -0.000  -0.000   0.000   0.000
  0.000  -0.000  -0.000   0.000   0.000  -0.000  -0.000   0.000   0.000   0.001  -0.000  -0.000   0.001  -0.000  -0.000   0.000
 -0.000  -0.000   0.000   0.000   0.000  -0.000   0.000   0.001  -0.001   0.000  -0.001   0.001  -0.001   0.000  -0.000   0.000


------------------------ aborting loop because EDIFF is reached ----------------------------------------


 


 total charge     
 
# of ion       s       p       d       f       tot
--------------------------------------------------
    1        1.998   5.695   0.476   0.184   8.354
    2        1.998   5.695   0.476   0.184   8.354
    3        1.998   5.695   0.472   0.184   8.349
    4        1.998   5.695   0.476   0.184   8.354
    5        1.998   5.695   0.476   0.184   8.354
    6        1.998   5.695   0.474   0.183   8.351
    7        0.309   0.463   4.901   0.000   5.672
    8        0.323   0.491   4.890   0.000   5.704
    9        0.332   0.508   4.886   0.000   5.726
   10        0.309   0.463   4.901   0.000   5.672
   11        0.323   0.491   4.890   0.000   5.704
   12        0.387   0.548   8.313   0.000   9.248
   13        1.563   3.455   0.000   0.000   5.018
   14        1.564   3.454   0.000   0.000   5.019
   15        1.564   3.454   0.000   0.000   5.019
   16        1.563   3.455   0.000   0.000   5.018
   17        1.559   3.453   0.000   0.000   5.012
   18        1.559   3.453   0.000   0.000   5.012
   19        1.564   3.454   0.000   0.000   5.018
   20        1.564   3.454   0.000   0.000   5.018
   21        1.560   3.454   0.000   0.000   5.014
   22        1.564   3.459   0.000   0.000   5.023
   23        1.564   3.459   0.000   0.000   5.023
   24        1.560   3.454   0.000   0.000   5.013
   25        1.565   3.456   0.000   0.000   5.021
   26        1.562   3.455   0.000   0.000   5.017
   27        1.565   3.456   0.000   0.000   5.021
   28        1.559   3.452   0.000   0.000   5.011
   29        1.565   3.457   0.000   0.000   5.021
   30        1.559   3.452   0.000   0.000   5.011
--------------------------------------------------
tot         42.095  99.320  35.631   1.105 178.150

 


 magnetization (x)
 
# of ion       s       p       d       f       tot
--------------------------------------------------
    1        0.000   0.001   0.011   0.007   0.019
    2        0.000   0.001   0.011   0.007   0.019
    3        0.001   0.000   0.011   0.005   0.018
    4        0.000   0.001   0.011   0.007   0.019
    5        0.000   0.001   0.011   0.007   0.019
    6        0.000   0.001   0.008   0.006   0.016
    7        0.024   0.027   3.836   0.000   3.887
    8        0.026   0.030   3.723   0.000   3.780
    9        0.028   0.032   3.640   0.000   3.700
   10        0.024   0.027   3.836   0.000   3.887
   11        0.026   0.030   3.723   0.000   3.779
   12        0.010  -0.003   1.697   0.000   1.704
   13        0.005  -0.033   0.000   0.000  -0.028
   14        0.006  -0.035   0.000   0.000  -0.028
   15        0.006  -0.035   0.000   0.000  -0.028
   16        0.005  -0.033   0.000   0.000  -0.028
   17        0.005  -0.002   0.000   0.000   0.003
   18        0.005  -0.002   0.000   0.000   0.003
   19        0.006  -0.035   0.000   0.000  -0.029
   20        0.006  -0.035   0.000   0.000  -0.029
   21        0.005  -0.006   0.000   0.000  -0.001
   22        0.006  -0.029   0.000   0.000  -0.023
   23        0.006  -0.029   0.000   0.000  -0.023
   24        0.005  -0.007   0.000   0.000  -0.001
   25        0.007  -0.037   0.000   0.000  -0.030
   26        0.004  -0.039   0.000   0.000  -0.036
   27        0.007  -0.037   0.000   0.000  -0.030
   28        0.005  -0.011   0.000   0.000  -0.006
   29        0.006  -0.037   0.000   0.000  -0.031
   30        0.005  -0.011   0.000   0.000  -0.006
--------------------------------------------------
tot          0.244  -0.307  20.519   0.038  20.494

 
    CHARGE:  cpu time    0.1330: real time    0.1334
    FORLOC:  cpu time    0.0121: real time    0.0121
    FORNL :  cpu time    0.8353: real time    0.8390
    STRESS:  cpu time    2.5300: real time    2.5374
    FORCOR:  cpu time    0.0927: real time    0.0930
    FORHAR:  cpu time    0.0203: real time    0.0204
    MIXING:  cpu time    0.0146: real time    0.0146
    OFIELD:  cpu time    0.0001: real time    0.0002

  FORCE on cell =-STRESS in cart. coord.  units (eV):
  Direction    XX          YY          ZZ          XY          YZ          ZX
  --------------------------------------------------------------------------------------
  Alpha Z   964.34147   964.34147   964.34147
  Ewald   -4865.17320 -4863.33175 -4880.95908    -0.00000    -0.00000     1.81097
  Hartree  1003.96677  1008.80242   999.79882     0.00000     0.00000     3.16350
  E(xc)   -1005.43998 -1005.52024 -1005.46454     0.00000    -0.00000    -0.01237
  Local    -506.59024  -514.64784  -489.97922     0.00000    -0.00000    -4.96444
  n-local   390.50390   390.11773   389.59039     0.63794     0.42031     0.07846
  augment   198.16878   198.64420   199.21581    -0.00000    -0.00000     0.03866
  Kinetic  3819.94732  3821.84754  3822.84586    -1.42153    -0.62600    -0.12739
  Fock        0.00000     0.00000     0.00000     0.00000     0.00000     0.00000
  -------------------------------------------------------------------------------------
  Total      -0.27518     0.25353    -0.61048     0.00000     0.00000    -0.01261
  in kB      -1.22057     1.12457    -2.70784     0.00000     0.00000    -0.05592
  external pressure =       -0.93 kB  Pullay stress =        0.00 kB


 VOLUME and BASIS-vectors are now :
 -----------------------------------------------------------------------------
  energy-cutoff  :      520.00
  volume of cell :      361.21
      direct lattice vectors                 reciprocal lattice vectors
     3.914933101 -3.917568155  3.926887397     0.085153080 -0.127630198  0.042433452
     3.914933101  3.917568155  3.926887397     0.085153080  0.127630198  0.042433452
    -3.912461449  0.000000000  7.851308890    -0.085179824  0.000000000  0.084920518

  length of vectors
     6.789292015  6.789292015  8.772138045     0.159188920  0.159188920  0.120279246


 FORCES acting on ions
    electron-ion (+dipol)            ewald-force                    non-local-force                 convergence-correction
 -----------------------------------------------------------------------------------------------
   0.352E+02 0.296E+02 -.364E+02   -.349E+02 -.292E+02 0.360E+02   -.274E+00 -.295E+00 0.295E+00   -.803E-02 0.330E-02 0.693E-02
   -.352E+02 0.296E+02 0.364E+02   0.349E+02 -.292E+02 -.360E+02   0.274E+00 -.295E+00 -.295E+00   0.803E-02 0.330E-02 -.693E-02
   0.375E-11 0.194E-11 0.157E-11   -.249E-13 0.284E-13 0.426E-13   -.108E-18 0.108E-18 0.000E+00   -.330E-13 0.107E-12 -.121E-12
   0.352E+02 -.296E+02 -.364E+02   -.349E+02 0.292E+02 0.360E+02   -.274E+00 0.295E+00 0.295E+00   -.803E-02 -.330E-02 0.693E-02
   -.352E+02 -.296E+02 0.364E+02   0.349E+02 0.292E+02 -.360E+02   0.274E+00 0.295E+00 -.295E+00   0.803E-02 -.330E-02 -.693E-02
   0.244E-13 0.371E-12 0.551E-13   -.391E-13 0.142E-13 0.000E+00   0.108E-18 0.108E-18 0.000E+00   0.139E-12 -.228E-12 0.302E-13
   0.243E+02 -.149E-11 -.941E+01   -.240E+02 -.360E-13 0.933E+01   -.413E+00 0.000E+00 0.785E-01   -.766E-02 -.438E-13 0.751E-02
   -.379E+01 -.129E-11 0.150E+02   0.379E+01 -.115E-13 -.148E+02   -.170E-01 -.867E-18 -.989E-01   0.740E-02 -.649E-13 -.635E-02
   0.354E-11 -.161E-12 -.227E-11   0.178E-14 -.562E-13 0.426E-13   -.678E-20 -.678E-20 0.136E-19   -.636E-13 0.107E-12 0.747E-14
   -.243E+02 0.271E-12 0.941E+01   0.240E+02 0.252E-13 -.933E+01   0.413E+00 0.000E+00 -.785E-01   0.766E-02 0.626E-13 -.751E-02
   0.379E+01 0.316E-12 -.150E+02   -.379E+01 -.367E-14 0.148E+02   0.170E-01 0.217E-18 0.989E-01   -.740E-02 0.888E-13 0.635E-02
   0.150E-12 -.164E-12 0.921E-13   0.284E-13 0.299E-13 -.924E-13   0.339E-20 0.000E+00 0.136E-19   0.213E-12 -.242E-12 0.235E-12
   0.111E+02 0.139E-11 0.118E+02   -.115E+02 -.438E-13 -.137E+02   0.380E+00 0.000E+00 0.181E+01   0.222E-03 -.395E-13 0.103E-01
   0.105E+02 -.150E-11 -.183E+02   -.104E+02 -.812E-13 0.197E+02   -.786E-01 0.000E+00 -.130E+01   -.584E-02 0.295E-13 0.454E-02
   -.105E+02 0.248E-11 0.183E+02   0.104E+02 -.349E-13 -.197E+02   0.786E-01 -.139E-16 0.130E+01   0.584E-02 0.777E-13 -.454E-02
   -.111E+02 0.675E-12 -.118E+02   0.115E+02 0.503E-14 0.137E+02   -.380E+00 0.000E+00 -.181E+01   -.222E-03 0.752E-13 -.103E-01
   -.115E+01 -.192E-12 -.578E+02   0.160E+01 -.329E-13 0.545E+02   -.461E+00 0.000E+00 0.337E+01   -.630E-02 0.366E-14 0.933E-02
   0.115E+01 -.618E-11 0.578E+02   -.160E+01 -.373E-13 -.545E+02   0.461E+00 0.000E+00 -.337E+01   0.630E-02 -.136E-12 -.933E-02
   -.127E+02 0.647E+01 0.118E+02   0.129E+02 -.697E+01 -.120E+02   -.203E+00 0.552E+00 0.246E+00   0.507E-02 0.195E-01 -.612E-02
   0.127E+02 -.647E+01 -.118E+02   -.129E+02 0.697E+01 0.120E+02   0.203E+00 -.552E+00 -.246E+00   -.507E-02 -.195E-01 0.612E-02
   0.468E-11 -.433E+02 0.295E-12   -.711E-12 0.385E+02 -.787E-12   -.261E-16 0.474E+01 -.759E-17   0.573E-13 -.126E-01 0.684E-13
   -.127E+02 -.647E+01 0.118E+02   0.129E+02 0.697E+01 -.120E+02   -.203E+00 -.552E+00 0.246E+00   0.507E-02 -.195E-01 -.612E-02
   0.127E+02 0.647E+01 -.118E+02   -.129E+02 -.697E+01 0.120E+02   0.203E+00 0.552E+00 -.246E+00   -.507E-02 0.195E-01 0.612E-02
   -.809E-12 0.433E+02 0.373E-11   0.213E-13 -.385E+02 -.249E-13   0.520E-16 -.474E+01 0.451E-16   -.891E-13 0.126E-01 -.956E-14
   -.981E+01 0.552E-12 0.970E+01   0.989E+01 -.411E-13 -.974E+01   -.111E-01 -.434E-18 0.780E-01   0.750E-02 0.274E-13 -.617E-02
   -.989E-12 0.189E-12 0.279E-11   0.533E-13 -.575E-14 -.888E-14   0.000E+00 0.000E+00 0.000E+00   -.944E-13 -.635E-15 -.769E-15
   0.981E+01 0.450E-12 -.970E+01   -.989E+01 0.316E-13 0.974E+01   0.111E-01 0.000E+00 -.780E-01   -.750E-02 0.154E-12 0.617E-02
   -.619E+02 0.721E-12 -.107E+01   0.587E+02 0.341E-13 0.166E+01   0.326E+01 0.000E+00 -.615E+00   -.901E-02 0.891E-14 -.761E-02
   -.202E-13 0.367E-12 0.432E-12   -.533E-13 0.174E-13 0.639E-13   -.271E-19 0.000E+00 0.000E+00   -.146E-14 -.816E-13 0.517E-14
   0.619E+02 0.155E-11 0.107E+01   -.587E+02 0.298E-14 -.166E+01   -.326E+01 0.000E+00 0.615E+00   0.901E-02 -.126E-12 0.761E-02
 -----------------------------------------------------------------------------------------------
   -.634E-11 0.444E-11 0.339E-11   -.568E-13 -.105E-13 -.246E-13   0.888E-15 -.434E-18 0.111E-15   0.139E-13 -.178E-12 0.329E-12
 
 
 POSITION                                       TOTAL-FORCE (eV/Angst)
 -----------------------------------------------------------------------------------
      0.03117      0.02896      3.89259         0.046969      0.052664     -0.046531
     -0.02870      0.02896      7.88560        -0.046969      0.052664      0.046531
      3.91493      0.00000      3.92689         0.000000     -0.000000      0.000000
      3.94611     -0.02896      7.81948         0.046969     -0.052664     -0.046531
      3.88623     -0.02896     11.81249        -0.046969     -0.052664      0.046531
      0.00000      0.00000      0.00000         0.000000     -0.000000      0.000000
      1.95389     -1.95878      5.89820        -0.070271     -0.000000      0.002593
      1.96054     -1.95878      9.81982        -0.009855     -0.000000      0.040225
      1.95747     -1.95878      1.96344         0.000000     -0.000000      0.000000
      1.96351      1.95878      9.80688         0.070271     -0.000000     -0.002593
      1.95686      1.95878      5.88527         0.009855     -0.000000     -0.040225
      1.95747      1.95878      1.96344         0.000000     -0.000000      0.000000
      1.96065     -1.95878      7.88770         0.030149     -0.000000     -0.069902
      1.95548     -1.95878      3.91266         0.008556     -0.000000      0.026622
      1.96193      1.95878     11.79242        -0.008556     -0.000000     -0.026622
      1.95676      1.95878      7.81738        -0.030149     -0.000000      0.069902
      1.95067      1.95878      3.94038        -0.016636     -0.000000      0.052671
      1.96673     -1.95878     11.76471         0.016636     -0.000000     -0.052671
     -1.95688      0.00427      5.89030        -0.030726      0.070362      0.032382
      5.87428     -0.00427      9.81479         0.030726     -0.070362     -0.032382
      5.87240      0.04000      5.89033         0.000000     -0.038975      0.000000
      1.95805     -0.00427      9.81718        -0.030726     -0.070362      0.032382
      1.95935      0.00427      5.88790         0.030726      0.070362     -0.032382
      1.95747     -0.04000      1.96344         0.000000      0.038975      0.000000
      0.00148     -1.95878      9.81573         0.074984     -0.000000      0.030625
      0.00124     -1.95878      5.88910         0.000000     -0.000000      0.000000
      3.91593      1.95878      5.88935        -0.074984     -0.000000     -0.030625
      0.01925      1.95878      9.80673         0.045459     -0.000000     -0.033329
      0.00124      1.95878      5.88910         0.000000     -0.000000      0.000000
      3.89816     -1.95878      5.89835        -0.045459     -0.000000      0.033329
 -----------------------------------------------------------------------------------
    total drift:                               -0.000000      0.000000      0.000000


--------------------------------------------------------------------------------------------------------



  FREE ENERGIE OF THE ION-ELECTRON SYSTEM (eV)
  ---------------------------------------------------
  free  energy   TOTEN  =      -232.36534119 eV

  energy  without entropy=     -232.36534119  energy(sigma->0) =     -232.36534119
 


--------------------------------------------------------------------------------------------------------


    POTLOK:  cpu time    0.0965: real time    0.0968


--------------------------------------------------------------------------------------------------------


     LOOP+:  cpu time   71.0622: real time   71.3408
    4ORBIT:  cpu time    0.0000: real time    0.0000
 


 total charge     
 
# of ion       s       p       d       f       tot
--------------------------------------------------
    1        1.998   5.695   0.476   0.184   8.354
    2        1.998   5.695   0.476   0.184   8.354
    3        1.998   5.695   0.472   0.184   8.349
    4        1.998   5.695   0.476   0.184   8.354
    5        1.998   5.695   0.476   0.184   8.354
    6        1.998   5.695   0.474   0.183   8.351
    7        0.309   0.463   4.901   0.000   5.672
    8        0.323   0.491   4.890   0.000   5.704
    9        0.332   0.508   4.886   0.000   5.726
   10        0.309   0.463   4.901   0.000   5.672
   11        0.323   0.491   4.890   0.000   5.704
   12        0.387   0.548   8.313   0.000   9.248
   13        1.563   3.455   0.000   0.000   5.018
   14        1.564   3.454   0.000   0.000   5.019
   15        1.564   3.454   0.000   0.000   5.019
   16        1.563   3.455   0.000   0.000   5.018
   17        1.559   3.453   0.000   0.000   5.012
   18        1.559   3.453   0.000   0.000   5.012
   19        1.564   3.454   0.000   0.000   5.018
   20        1.564   3.454   0.000   0.000   5.018
   21        1.560   3.454   0.000   0.000   5.014
   22        1.564   3.459   0.000   0.000   5.023
   23        1.564   3.459   0.000   0.000   5.023
   24        1.560   3.454   0.000   0.000   5.013
   25        1.565   3.456   0.000   0.000   5.021
   26        1.562   3.455   0.000   0.000   5.017
   27        1.565   3.456   0.000   0.000   5.021
   28        1.559   3.452   0.000   0.000   5.011
   29        1.565   3.457   0.000   0.000   5.021
   30        1.559   3.452   0.000   0.000   5.011
--------------------------------------------------
tot         42.095  99.320  35.631   1.105 178.150

 


 magnetization (x)
 
# of ion       s       p       d       f       tot
--------------------------------------------------
    1        0.000   0.001   0.011   0.007   0.019
    2        0.000   0.001   0.011   0.007   0.019
    3        0.001   0.000   0.011   0.005   0.018
    4        0.000   0.001   0.011   0.007   0.019
    5        0.000   0.001   0.011   0.007   0.019
    6        0.000   0.001   0.008   0.006   0.016
    7        0.024   0.027   3.836   0.000   3.887
    8        0.026   0.030   3.723   0.000   3.780
    9        0.028   0.032   3.640   0.000   3.700
   10        0.024   0.027   3.836   0.000   3.887
   11        0.026   0.030   3.723   0.000   3.779
   12        0.010  -0.003   1.697   0.000   1.704
   13        0.005  -0.033   0.000   0.000  -0.028
   14        0.006  -0.035   0.000   0.000  -0.028
   15        0.006  -0.035   0.000   0.000  -0.028
   16        0.005  -0.033   0.000   0.000  -0.028
   17        0.005  -0.002   0.000   0.000   0.003
   18        0.005  -0.002   0.000   0.000   0.003
   19        0.006  -0.035   0.000   0.000  -0.029
   20        0.006  -0.035   0.000   0.000  -0.029
   21        0.005  -0.006   0.000   0.000  -0.001
   22        0.006  -0.029   0.000   0.000  -0.023
   23        0.006  -0.029   0.000   0.000  -0.023
   24        0.005  -0.007   0.000   0.000  -0.001
   25        0.007  -0.037   0.000   0.000  -0.030
   26        0.004  -0.039   0.000   0.000  -0.036
   27        0.007  -0.037   0.000   0.000  -0.030
   28        0.005  -0.011   0.000   0.000  -0.006
   29        0.006  -0.037   0.000   0.000  -0.031
   30        0.005  -0.011   0.000   0.000  -0.006
--------------------------------------------------
tot          0.244  -0.307  20.519   0.038  20.494

 
 BZINTS: Fermi energy:  7.995327;219.000000 electrons
         Band energy:-415.684520;  BLOECHL correction: -0.038127

 total amount of memory used by VASP MPI-rank0    67832. kBytes
=======================================================================

   base      :      30000. kBytes
   nonlr-proj:       7168. kBytes
   fftplans  :       2919. kBytes
   grid      :       8208. kBytes
   one-center:        294. kBytes
   wavefun   :      19243. kBytes
 
  
  
 General timing and accounting informations for this job:
 ========================================================
  
                  Total CPU time used (sec):       78.565
                            User time (sec):       75.946
                          System time (sec):        2.619
                         Elapsed time (sec):       79.002
  
                   Maximum memory used (kb):      113044.
                   Average memory used (kb):           0.
  
                          Minor page faults:        39387
                          Major page faults:            0
                 Voluntary context switches:         1111
