       N       E                     dE             d eps       ncg     rms          rms(c)
DAV:   1     0.227233336877E+04    0.22723E+04   -0.56163E+04  7146   0.252E+03
DAV:   2     0.719094694858E+03   -0.15532E+04   -0.14098E+04  7512   0.608E+02
DAV:   3     0.114605353159E+03   -0.60449E+03   -0.55048E+03  7528   0.309E+02
DAV:   4    -0.119002432183E+03   -0.23361E+03   -0.22311E+03 10926   0.156E+02
DAV:   5    -0.162488480315E+03   -0.43486E+02   -0.41753E+02 12310   0.803E+01    0.671E+01
RMM:   6    -0.145563080309E+03    0.16925E+02   -0.49801E+02 11550   0.107E+02    0.902E+01
RMM:   7    -0.141363568171E+03    0.41995E+01   -0.85421E+01 11124   0.355E+01    0.387E+01
RMM:   8    -0.138176371491E+03    0.31872E+01   -0.25794E+01  9945   0.322E+01    0.171E+01
RMM:   9    -0.139864068693E+03   -0.16877E+01   -0.14906E+01 10929   0.157E+01    0.882E+00
RMM:  10    -0.140069427729E+03   -0.20536E+00   -0.25403E+00 11782   0.552E+00    0.564E+00
RMM:  11    -0.140215913280E+03   -0.14649E+00   -0.15474E+00 11406   0.470E+00    0.292E+00
RMM:  12    -0.140268610266E+03   -0.52697E-01   -0.41598E-01 11370   0.254E+00    0.183E+00
RMM:  13    -0.140292081443E+03   -0.23471E-01   -0.17308E-01 11067   0.151E+00    0.993E-01
RMM:  14    -0.140299886506E+03   -0.78051E-02   -0.83918E-02 10626   0.111E+00    0.514E-01
RMM:  15    -0.140304512891E+03   -0.46264E-02   -0.42300E-02  9573   0.621E-01    0.254E-01
RMM:  16    -0.140306642748E+03   -0.21299E-02   -0.22570E-02  7811   0.525E-01    0.121E-01
RMM:  17    -0.140308222497E+03   -0.15797E-02   -0.15219E-02  7187   0.422E-01    0.637E-02
RMM:  18    -0.140309235794E+03   -0.10133E-02   -0.10285E-02  6667   0.407E-01    0.498E-02
RMM:  19    -0.140309907483E+03   -0.67169E-03   -0.71652E-03  6439   0.324E-01
   1 F= -.14030991E+03 E0= -.14030991E+03  d E =0.000000E+00  mag=     7.0021
