 vasp.5.4.4.18Apr17-6-g9f103f2a35 (build Oct 03 2018 13:58:34) complex          
  
 executed on             LinuxIFC date 2019.06.04  01:25:33
 running on   40 total cores
 distrk:  each k-point on   20 cores,    2 groups
 distr:  one band on NCORES_PER_BAND=  10 cores,    2 groups


--------------------------------------------------------------------------------------------------------


 INCAR:
 POTCAR:    PAW_PBE La 06Sep2000                  
 POTCAR:    PAW_PBE Mn 06Sep2000                  
 POTCAR:    PAW_PBE Ni 02Aug2007                  
 POTCAR:    PAW_PBE O 08Apr2002                   

 ----------------------------------------------------------------------------- 
|                                                                             |
|           W    W    AA    RRRRR   N    N  II  N    N   GGGG   !!!           |
|           W    W   A  A   R    R  NN   N  II  NN   N  G    G  !!!           |
|           W    W  A    A  R    R  N N  N  II  N N  N  G       !!!           |
|           W WW W  AAAAAA  RRRRR   N  N N  II  N  N N  G  GGG   !            |
|           WW  WW  A    A  R   R   N   NN  II  N   NN  G    G                |
|           W    W  A    A  R    R  N    N  II  N    N   GGGG   !!!           |
|                                                                             |
|      You have enabled k-point parallelism (KPAR>1).                         |
|      This developmental code was originally  written by Paul Kent at ORNL,  |
|      and carefully double checked in Vienna.                                |
|      GW as well as linear response parallelism added by Martijn Marsman     |
|      and Georg Kresse.                                                      |
|      Carefully verify results versus KPAR=1.                                |
|      Report problems to Paul Kent and Vienna.                               |
|                                                                             |
 ----------------------------------------------------------------------------- 

 POTCAR:    PAW_PBE La 06Sep2000                  
   VRHFIN =La : [core=Kr4d]                                                     
   LEXCH  = PE                                                                  
   EATOM  =   865.9763 eV,   63.6475 Ry                                         
                                                                                
   TITEL  = PAW_PBE La 06Sep2000                                                
   LULTRA =        F    use ultrasoft PP ?                                      
   IUNSCR =        1    unscreen: 0-lin 1-nonlin 2-no                           
   RPACOR =    2.300    partial core radius                                     
   POMASS =  138.900; ZVAL   =   11.000    mass and valenz                      
   RCORE  =    2.800    outmost cutoff radius                                   
   RWIGS  =    2.900; RWIGS  =    1.535    wigner-seitz radius (au A)           
   ENMAX  =  219.292; ENMIN  =  164.469 eV                                      
   RCLOC  =    1.601    cutoff for local pot                                    
   LCOR   =        T    correct aug charges                                     
   LPAW   =        T    paw PP                                                  
   EAUG   =  583.575                                                            
   DEXC   =    0.000                                                            
   RMAX   =    2.853    core radius for proj-oper                               
   RAUG   =    1.300    factor for augmentation sphere                          
   RDEP   =    2.802    radius for radial grids                                 
   RDEPT  =    2.156    core radius for aug-charge                              
                                                                                
   Atomic configuration                                                         
   14 entries                                                                   
     n  l   j            E        occ.                                          
     1  0  0.50    -38741.0879   2.0000                                         
     2  0  0.50     -6166.6801   2.0000                                         
     2  1  1.50     -5526.1593   6.0000                                         
     3  0  0.50     -1319.0200   2.0000                                         
     3  1  1.50     -1114.5963   6.0000                                         
     3  2  2.50      -821.1793  10.0000                                         
     4  0  0.50      -266.3851   2.0000                                         
     4  1  1.50      -199.9276   6.0000                                         
     4  2  2.50      -103.8239  10.0000                                         
     5  0  0.50       -38.9172   2.0000                                         
     6  0  0.50        -3.6792   2.0000                                         
     5  1  1.50       -22.3948   6.0000                                         
     5  2  2.50        -3.0911   0.9999                                         
     4  3  2.50        -4.3603   0.0001                                         
   Description                                                                  
     l       E           TYP  RCUT    TYP  RCUT                                 
     0    -38.9171645     23  2.800                                             
     0     -3.6792381     23  2.800                                             
     1    -22.3948300     23  2.500                                             
     1     27.2116520     23  2.500                                             
     2     -3.0910934     23  2.500                                             
     2      1.0119135     23  2.500                                             
     3     -4.3602911     23  2.800                                             
     3     -5.7208737     23  2.800                                             
  local pseudopotential read in
  partial core-charges read in
  partial kinetic energy density read in
  atomic valenz-charges read in
  non local Contribution for L=           0  read in
    real space projection operators read in
  non local Contribution for L=           0  read in
    real space projection operators read in
  non local Contribution for L=           1  read in
    real space projection operators read in
  non local Contribution for L=           1  read in
    real space projection operators read in
  non local Contribution for L=           2  read in
    real space projection operators read in
  non local Contribution for L=           2  read in
    real space projection operators read in
  non local Contribution for L=           3  read in
    real space projection operators read in
  non local Contribution for L=           3  read in
    real space projection operators read in
    PAW grid and wavefunctions read in
 
   number of l-projection  operators is LMAX  =           8
   number of lm-projection operators is LMMAX =          32
 
 POTCAR:    PAW_PBE Mn 06Sep2000                  
   VRHFIN =Mn: d6 s1                                                            
   LEXCH  = PE                                                                  
   EATOM  =   416.7541 eV,   30.6306 Ry                                         
                                                                                
   TITEL  = PAW_PBE Mn 06Sep2000                                                
   LULTRA =        F    use ultrasoft PP ?                                      
   IUNSCR =        1    unscreen: 0-lin 1-nonlin 2-no                           
   RPACOR =    2.000    partial core radius                                     
   POMASS =   54.938; ZVAL   =    7.000    mass and valenz                      
   RCORE  =    2.300    outmost cutoff radius                                   
   RWIGS  =    2.500; RWIGS  =    1.323    wigner-seitz radius (au A)           
   ENMAX  =  269.864; ENMIN  =  202.398 eV                                      
   RCLOC  =    1.725    cutoff for local pot                                    
   LCOR   =        T    correct aug charges                                     
   LPAW   =        T    paw PP                                                  
   EAUG   =  500.711                                                            
   DEXC   =    0.000                                                            
   RMAX   =    2.343    core radius for proj-oper                               
   RAUG   =    1.300    factor for augmentation sphere                          
   RDEP   =    2.338    radius for radial grids                                 
   RDEPT  =    1.911    core radius for aug-charge                              
                                                                                
   Atomic configuration                                                         
    9 entries                                                                   
     n  l   j            E        occ.                                          
     1  0  0.50     -6424.8288   2.0000                                         
     2  0  0.50      -739.1154   2.0000                                         
     2  1  1.50      -625.3949   6.0000                                         
     3  0  0.50       -81.6100   2.0000                                         
     3  1  1.50       -50.4667   6.0000                                         
     3  2  2.50        -3.3745   6.0000                                         
     4  0  0.50        -4.1331   1.0000                                         
     4  1  0.50        -4.0817   0.0000                                         
     4  3  2.50        -1.3606   0.0000                                         
   Description                                                                  
     l       E           TYP  RCUT    TYP  RCUT                                 
     2     -3.3744664     23  2.300                                             
     2     -4.7350490     23  2.300                                             
     0     -4.1331408     23  2.300                                             
     0      7.6656614     23  2.300                                             
     1     -2.7211652     23  2.300                                             
     1     20.4087390     23  2.300                                             
  local pseudopotential read in
  partial core-charges read in
  partial kinetic energy density read in
  atomic valenz-charges read in
  non local Contribution for L=           2  read in
    real space projection operators read in
  non local Contribution for L=           2  read in
    real space projection operators read in
  non local Contribution for L=           0  read in
    real space projection operators read in
  non local Contribution for L=           0  read in
    real space projection operators read in
  non local Contribution for L=           1  read in
    real space projection operators read in
  non local Contribution for L=           1  read in
    real space projection operators read in
    PAW grid and wavefunctions read in
 
   number of l-projection  operators is LMAX  =           6
   number of lm-projection operators is LMMAX =          18
 
 POTCAR:    PAW_PBE Ni 02Aug2007                  
   VRHFIN =Ni:                                                                  
   LEXCH  = PE                                                                  
   EATOM  =  1077.6739 eV,   79.2068 Ry                                         
                                                                                
   TITEL  = PAW_PBE Ni 02Aug2007                                                
   LULTRA =        F    use ultrasoft PP ?                                      
   IUNSCR =        1    unscreen: 0-lin 1-nonlin 2-no                           
   RPACOR =    2.000    partial core radius                                     
   POMASS =   58.690; ZVAL   =   10.000    mass and valenz                      
   RCORE  =    2.300    outmost cutoff radius                                   
   RWIGS  =    2.430; RWIGS  =    1.286    wigner-seitz radius (au A)           
   ENMAX  =  269.532; ENMIN  =  202.149 eV                                      
   RCLOC  =    1.201    cutoff for local pot                                    
   LCOR   =        T    correct aug charges                                     
   LPAW   =        T    paw PP                                                  
   EAUG   =  544.565                                                            
   DEXC   =    0.000                                                            
   RMAX   =    2.357    core radius for proj-oper                               
   RAUG   =    1.300    factor for augmentation sphere                          
   RDEP   =    2.390    radius for radial grids                                 
   RDEPT  =    1.838    core radius for aug-charge                              
                                                                                
   Atomic configuration                                                         
    9 entries                                                                   
     n  l   j            E        occ.                                          
     1  0  0.50     -8206.4253   2.0000                                         
     2  0  0.50      -976.1748   2.0000                                         
     2  1  1.50      -839.0571   6.0000                                         
     3  0  0.50      -105.9991   2.0000                                         
     3  1  1.50       -66.4603   6.0000                                         
     3  2  2.50        -4.6458   9.0000                                         
     4  0  0.50        -4.4926   1.0000                                         
     4  1  1.50        -4.0817   0.0000                                         
     4  3  2.50        -1.3606   0.0000                                         
   Description                                                                  
     l       E           TYP  RCUT    TYP  RCUT                                 
     2     -4.6457903     23  2.300                                             
     2     -6.0063729     23  2.300                                             
     0     -4.4925590     23  2.300                                             
     0      5.0102601     23  2.300                                             
     1     -2.7211652     23  2.300                                             
     1     16.5183231     23  2.300                                             
  local pseudopotential read in
  partial core-charges read in
  partial kinetic energy density read in
  atomic valenz-charges read in
  non local Contribution for L=           2  read in
    real space projection operators read in
  non local Contribution for L=           2  read in
    real space projection operators read in
  non local Contribution for L=           0  read in
    real space projection operators read in
  non local Contribution for L=           0  read in
    real space projection operators read in
  non local Contribution for L=           1  read in
    real space projection operators read in
  non local Contribution for L=           1  read in
    real space projection operators read in
    PAW grid and wavefunctions read in
 
   number of l-projection  operators is LMAX  =           6
   number of lm-projection operators is LMMAX =          18
 
 POTCAR:    PAW_PBE O 08Apr2002                   
   VRHFIN =O: s2p4                                                              
   LEXCH  = PE                                                                  
   EATOM  =   432.3788 eV,   31.7789 Ry                                         
                                                                                
   TITEL  = PAW_PBE O 08Apr2002                                                 
   LULTRA =        F    use ultrasoft PP ?                                      
   IUNSCR =        1    unscreen: 0-lin 1-nonlin 2-no                           
   RPACOR =    1.200    partial core radius                                     
   POMASS =   16.000; ZVAL   =    6.000    mass and valenz                      
   RCORE  =    1.520    outmost cutoff radius                                   
   RWIGS  =    1.550; RWIGS  =    0.820    wigner-seitz radius (au A)           
   ENMAX  =  400.000; ENMIN  =  300.000 eV                                      
   ICORE  =        2    local potential                                         
   LCOR   =        T    correct aug charges                                     
   LPAW   =        T    paw PP                                                  
   EAUG   =  605.392                                                            
   DEXC   =    0.000                                                            
   RMAX   =    1.553    core radius for proj-oper                               
   RAUG   =    1.300    factor for augmentation sphere                          
   RDEP   =    1.550    radius for radial grids                                 
   RDEPT  =    1.329    core radius for aug-charge                              
                                                                                
   Atomic configuration                                                         
    4 entries                                                                   
     n  l   j            E        occ.                                          
     1  0  0.50      -514.6923   2.0000                                         
     2  0  0.50       -23.9615   2.0000                                         
     2  1  0.50        -9.0305   4.0000                                         
     3  2  1.50        -9.5241   0.0000                                         
   Description                                                                  
     l       E           TYP  RCUT    TYP  RCUT                                 
     0    -23.9615318     23  1.200                                             
     0     -9.5240782     23  1.200                                             
     1     -9.0304911     23  1.520                                             
     1      8.1634956     23  1.520                                             
     2     -9.5240782      7  1.500                                             
  local pseudopotential read in
  partial core-charges read in
  partial kinetic energy density read in
  kinetic energy density of atom read in
  atomic valenz-charges read in
  non local Contribution for L=           0  read in
    real space projection operators read in
  non local Contribution for L=           0  read in
    real space projection operators read in
  non local Contribution for L=           1  read in
    real space projection operators read in
  non local Contribution for L=           1  read in
    real space projection operators read in
    PAW grid and wavefunctions read in
 
   number of l-projection  operators is LMAX  =           4
   number of lm-projection operators is LMMAX =           8
 
 Optimization of the real space projectors (new method)

 maximal supplied QI-value         = 13.42
 optimisation between [QCUT,QGAM] = [ 11.67, 23.35] = [ 38.16,152.62] Ry 
 Optimized for a Real-space Cutoff    1.63 Angstroem

   l    n(q)    QCUT    max X(q) W(low)/X(q) W(high)/X(q)  e(spline) 
   0     11    11.673    13.882    0.27E-04    0.79E-05    0.11E-06
   0     11    11.673    12.184    0.39E-04    0.13E-04    0.19E-06
   1     11    11.673     4.523    0.73E-05    0.76E-05    0.12E-06
   1     11    11.673     4.424    0.87E-05    0.13E-04    0.19E-06
   2     10    11.673    52.481    0.65E-04    0.36E-04    0.18E-06
   2     10    11.673    38.501    0.61E-04    0.33E-04    0.17E-06
   3     10    11.673    65.631    0.17E-03    0.14E-03    0.37E-06
   3     10    11.673    56.854    0.17E-03    0.14E-03    0.37E-06
 Optimization of the real space projectors (new method)

 maximal supplied QI-value         = 16.25
 optimisation between [QCUT,QGAM] = [ 11.54, 23.24] = [ 37.28,151.24] Ry 
 Optimized for a Real-space Cutoff    1.53 Angstroem

   l    n(q)    QCUT    max X(q) W(low)/X(q) W(high)/X(q)  e(spline) 
   2     10    11.539   110.144    0.12E-03    0.13E-03    0.25E-06
   2     10    11.539   103.200    0.12E-03    0.13E-03    0.25E-06
   0     11    11.539    68.437    0.46E-04    0.21E-04    0.32E-06
   0     11    11.539    33.971    0.37E-04    0.19E-04    0.29E-06
   1     10    11.539    17.065    0.51E-04    0.22E-04    0.13E-06
   1     10    11.539    12.540    0.41E-04    0.18E-04    0.11E-06
 Optimization of the real space projectors (new method)

 maximal supplied QI-value         = 16.25
 optimisation between [QCUT,QGAM] = [ 11.54, 23.24] = [ 37.28,151.24] Ry 
 Optimized for a Real-space Cutoff    1.45 Angstroem

   l    n(q)    QCUT    max X(q) W(low)/X(q) W(high)/X(q)  e(spline) 
   2      9    11.539    60.317    0.19E-03    0.47E-04    0.16E-06
   2      9    11.539    55.921    0.19E-03    0.48E-04    0.16E-06
   0     10    11.539    51.690    0.80E-04    0.50E-04    0.24E-06
   0     10    11.539    30.015    0.73E-04    0.45E-04    0.22E-06
   1     10    11.539    18.849    0.87E-04    0.16E-03    0.71E-07
   1     10    11.539    14.624    0.73E-04    0.13E-03    0.64E-07
 Optimization of the real space projectors (new method)

 maximal supplied QI-value         = 24.76
 optimisation between [QCUT,QGAM] = [ 11.64, 23.27] = [ 37.91,151.63] Ry 
 Optimized for a Real-space Cutoff    1.14 Angstroem

   l    n(q)    QCUT    max X(q) W(low)/X(q) W(high)/X(q)  e(spline) 
   0      8    11.635    20.381    0.10E-03    0.33E-03    0.24E-06
   0      8    11.635    15.268    0.11E-03    0.35E-03    0.26E-06
   1      7    11.635     5.964    0.24E-03    0.31E-03    0.30E-06
   1      7    11.635     5.382    0.22E-03    0.25E-03    0.26E-06
  PAW_PBE La 06Sep2000                  :
 energy of atom  1       EATOM= -865.9763
 kinetic energy error for atom=    0.0009 (will be added to EATOM!!)
  PAW_PBE Mn 06Sep2000                  :
 energy of atom  2       EATOM= -416.7541
 kinetic energy error for atom=    0.0024 (will be added to EATOM!!)
  PAW_PBE Ni 02Aug2007                  :
 energy of atom  3       EATOM=-1077.6739
 kinetic energy error for atom=    0.0030 (will be added to EATOM!!)
  PAW_PBE O 08Apr2002                   :
 energy of atom  4       EATOM= -432.3788
 kinetic energy error for atom=    0.0208 (will be added to EATOM!!)
 
 
 POSCAR: SCEL4_2_1_2_0_1_1/2                     
  positions in direct lattice
  velocities in cartesian coordinates
 exchange correlation table for  LEXCH =        8
   RHO(1)=    0.500       N(1)  =     2000
   RHO(2)=  100.500       N(2)  =     4000
 


--------------------------------------------------------------------------------------------------------


 ion  position               nearest neighbor table
   1  0.248  0.248  0.497-  16 2.71  18 2.71  20 2.71  14 2.71  11 2.73  11 2.73   9 2.73   9 2.73
                            15 2.75  17 2.75  19 2.75  13 2.75   6 3.33   6 3.33   8 3.33   8 3.33
   2  0.502  0.502  0.003-  16 2.71  18 2.71  20 2.71  14 2.71  10 2.73  10 2.73  12 2.73  12 2.73
                            13 2.75  19 2.75  17 2.75  15 2.75   8 3.33   8 3.33   6 3.33   6 3.33
   3  0.748  0.748  0.497-  14 2.71  18 2.71  20 2.71  16 2.71  11 2.73  11 2.73   9 2.73   9 2.73
                            13 2.75  17 2.75  19 2.75  15 2.75   6 3.33   6 3.33   8 3.33   8 3.33
   4  0.002  0.002  0.003-  14 2.71  18 2.71  20 2.71  16 2.71  10 2.73  10 2.73  12 2.73  12 2.73
                            15 2.75  19 2.75  17 2.75  13 2.75   8 3.33   8 3.33   6 3.33   6 3.33
   5  0.875  0.375  0.750-  13 1.90  15 1.90  17 1.90  19 1.90   9 1.91  12 1.91   2 3.36   4 3.36
                             3 3.36   1 3.36   1 3.36   2 3.36   3 3.36   4 3.36
   6  0.125  0.625  0.251-  18 1.93  16 1.93  14 1.93  20 1.93  11 1.94  12 1.97   1 3.33   3 3.33
                             3 3.33   1 3.33   2 3.33   4 3.33   4 3.33   2 3.33
   7  0.375  0.875  0.750-  10 1.92  11 1.92  13 1.96  15 1.96  17 1.96  19 1.96   4 3.36   2 3.36
                             1 3.36   3 3.36   1 3.36   2 3.36   3 3.36   4 3.36
   8  0.625  0.125  0.249-  18 1.93  16 1.93  14 1.93  20 1.93  10 1.94   9 1.97   2 3.33   4 3.33
                             2 3.33   4 3.33   3 3.33   1 3.33   1 3.33   3 3.33
   9  0.752  0.252  0.504-   5 1.91   8 1.97   3 2.73   1 2.73   1 2.73   3 2.73
  10  0.499  0.999  0.999-   7 1.92   8 1.94   4 2.73   2 2.73   2 2.73   4 2.73
  11  0.251  0.751  0.501-   7 1.92   6 1.94   1 2.73   3 2.73   1 2.73   3 2.73
  12  0.998  0.498  0.996-   5 1.91   6 1.97   2 2.73   4 2.73   2 2.73   4 2.73
  13  0.121  0.129  0.750-   5 1.90   7 1.96   2 2.75   3 2.75   1 2.75   4 2.75
  14  0.875  0.875  0.250-   6 1.93   8 1.93   3 2.71   4 2.71   1 2.71   2 2.71
  15  0.629  0.621  0.750-   5 1.90   7 1.96   1 2.75   4 2.75   3 2.75   2 2.75
  16  0.375  0.375  0.250-   6 1.93   8 1.93   1 2.71   2 2.71   3 2.71   4 2.71
  17  0.629  0.129  0.750-   5 1.90   7 1.96   1 2.75   3 2.75   2 2.75   4 2.75
  18  0.375  0.875  0.250-   6 1.93   8 1.93   3 2.71   4 2.71   1 2.71   2 2.71
  19  0.121  0.621  0.750-   5 1.90   7 1.96   2 2.75   4 2.75   3 2.75   1 2.75
  20  0.875  0.375  0.250-   6 1.93   8 1.93   3 2.71   4 2.71   1 2.71   2 2.71
 
  LATTYP: Found a body centered tetragonal cell.
 ALAT       =     5.4559341350
 C/A-ratio  =     2.8345236140
  
  Lattice vectors:
  
 A1 = (   0.0000000000,  -3.8579280246,   7.7324870710)
 A2 = (   0.0000000000,   3.8579280246,   7.7324870710)
 A3 = (  -3.8579280246,   0.0000000000,  -7.7324870710)


Analysis of symmetry for initial positions (statically):
=====================================================================
 Subroutine PRICEL returns:
 Original cell was already a primitive cell.
 

 Routine SETGRP: Setting up the symmetry group for a 
 body centered tetragonal supercell.


 Subroutine GETGRP returns: Found 16 space group operations
 (whereof  4 operations were pure point group operations)
 out of a pool of 16 trial point group operations.


The static configuration has the point symmetry C_2v.
 The point group associated with its full space group is D_4h.


Analysis of symmetry for dynamics (positions and initial velocities):
=====================================================================
 Subroutine PRICEL returns:
 Original cell was already a primitive cell.
 

 Routine SETGRP: Setting up the symmetry group for a 
 body centered tetragonal supercell.


 Subroutine GETGRP returns: Found 16 space group operations
 (whereof  4 operations were pure point group operations)
 out of a pool of 16 trial point group operations.


The dynamic configuration has the point symmetry C_2v.
 The point group associated with its full space group is D_4h.


Analysis of structural, dynamic, and magnetic symmetry:
=====================================================================
 Subroutine PRICEL returns:
 Original cell was already a primitive cell.
 

 Routine SETGRP: Setting up the symmetry group for a 
 body centered tetragonal supercell.


 Subroutine GETGRP returns: Found 16 space group operations
 (whereof  4 operations were pure point group operations)
 out of a pool of 16 trial point group operations.


The magnetic configuration has the point symmetry C_2v.
 The point group associated with its full space group is D_4h.


 Subroutine INISYM returns: Found 16 space group operations
 (whereof  4 operations are pure point group operations),
 and found     1 'primitive' translations

 
 
 KPOINTS: Automatic mesh                          

Automatic generation of k-mesh.
 generate k-points for:    4    4    3
Space group operators:
 irot       det(A)        alpha          n_x          n_y          n_z        tau_x        tau_y        tau_z
    1     1.000000     0.000000     1.000000     0.000000     0.000000     0.000000     0.000000     0.000000
    2     1.000000   180.000000     0.000000     0.000000     1.000000     0.000000     0.000000     0.000000
    3    -1.000000   180.000000     0.707107     0.707107     0.000000     0.000000     0.000000     0.000000
    4    -1.000000   180.000000     0.707107    -0.707107     0.000000     0.000000     0.000000     0.000000
    5    -1.000000     0.000000     1.000000     0.000000     0.000000     0.750000     0.750000     1.500000
    6     1.000000    90.000000     0.000000     0.000000    -1.000000     0.500000     0.500000     1.000000
    7    -1.000000    90.000000     0.000000     0.000000    -1.000000     0.250000     0.250000     0.500000
    8    -1.000000   180.000000     0.000000     0.000000     1.000000     0.750000     0.750000     1.500000
    9     1.000000    90.000000     0.000000     0.000000     1.000000     0.500000     0.500000     1.000000
   10    -1.000000    90.000000     0.000000     0.000000     1.000000     0.250000     0.250000     0.500000
   11     1.000000   180.000000     0.707107     0.707107     0.000000     0.750000     0.750000     1.500000
   12     1.000000   180.000000     1.000000     0.000000     0.000000     0.250000     0.250000     0.500000
   13    -1.000000   180.000000     1.000000     0.000000     0.000000     0.500000     0.500000     1.000000
   14     1.000000   180.000000     0.707107    -0.707107     0.000000     0.750000     0.750000     1.500000
   15     1.000000   180.000000     0.000000     1.000000     0.000000     0.250000     0.250000     0.500000
   16    -1.000000   180.000000     0.000000     1.000000     0.000000     0.500000     0.500000     1.000000
 
 Subroutine IBZKPT returns following result:
 ===========================================
 
 Found     17 irreducible k-points:
 
 Following reciprocal coordinates:
            Coordinates               Weight
  0.000000  0.000000  0.000000      1.000000
  0.250000  0.000000 -0.000000      4.000000
  0.500000  0.000000 -0.000000      2.000000
  0.250000  0.250000 -0.000000      2.000000
  0.500000  0.250000 -0.000000      4.000000
 -0.250000  0.250000  0.000000      2.000000
  0.500000  0.500000 -0.000000      1.000000
  0.000000  0.000000  0.333333      2.000000
  0.250000  0.000000  0.333333      4.000000
  0.500000  0.000000  0.333333      4.000000
 -0.250000  0.000000  0.333333      4.000000
  0.250000  0.250000  0.333333      2.000000
  0.500000  0.250000  0.333333      4.000000
 -0.250000  0.250000  0.333333      4.000000
  0.500000  0.500000  0.333333      2.000000
 -0.250000  0.500000  0.333333      4.000000
 -0.250000 -0.250000  0.333333      2.000000
 
 Following cartesian coordinates:
            Coordinates               Weight
  0.000000  0.000000  0.000000      1.000000
  0.032401 -0.032401  0.016166      4.000000
  0.064802 -0.064802  0.032331      2.000000
  0.064802  0.000000  0.032331      2.000000
  0.097202 -0.032401  0.048497      4.000000
  0.000000  0.064802  0.000000      2.000000
  0.129603  0.000000  0.064662      1.000000
  0.000000  0.000000  0.043108      2.000000
  0.032401 -0.032401  0.059274      4.000000
  0.064802 -0.064802  0.075439      4.000000
 -0.032401  0.032401  0.026943      4.000000
  0.064802  0.000000  0.075439      2.000000
  0.097202 -0.032401  0.091605      4.000000
  0.000000  0.064802  0.043108      4.000000
  0.129603  0.000000  0.107770      2.000000
  0.032401  0.097202  0.059274      4.000000
 -0.064802  0.000000  0.010777      2.000000
 
 TETIRR: Found     74 inequivalent tetrahedra from      288


--------------------------------------------------------------------------------------------------------




 Dimension of arrays:
   k-points           NKPTS =     17   k-points in BZ     NKDIM =     17   number of bands    NBANDS=     98
   number of dos      NEDOS =    301   number of ions     NIONS =     20
   non local maximal  LDIM  =      8   non local SUM 2l+1 LMDIM =     32
   total plane-waves  NPLWV = 112896
   max r-space proj   IRMAX =   8902   max aug-charges    IRDMAX=  25826
   dimension x,y,z NGX =    42 NGY =   42 NGZ =   64
   dimension x,y,z NGXF=    84 NGYF=   84 NGZF=  128
   support grid    NGXF=    84 NGYF=   84 NGZF=  128
   ions per type =               4   1   3  12
   NGX,Y,Z   is equivalent  to a cutoff of  12.80, 12.80, 12.31 a.u.
   NGXF,Y,Z  is equivalent  to a cutoff of  25.60, 25.60, 24.62 a.u.

 SYSTEM =  final                                   
 POSCAR =  SCEL4_2_1_2_0_1_1/2                     

 Startparameter for this run:
   NWRITE =      2    write-flag & timer
   PREC   = accura    normal or accurate (medium, high low for compatibility)
   ISTART =      0    job   : 0-new  1-cont  2-samecut
   ICHARG =      1    charge: 1-file 2-atom 10-const
   ISPIN  =      2    spin polarized calculation?
   LNONCOLLINEAR =      F non collinear calculations
   LSORBIT =      F    spin-orbit coupling
   INIWAV =      1    electr: 0-lowe 1-rand  2-diag
   LASPH  =      F    aspherical Exc in radial PAW
   METAGGA=      F    non-selfconsistent MetaGGA calc.

 Electronic Relaxation 1
   ENCUT  =  520.0 eV  38.22 Ry    6.18 a.u.  10.14 10.14 16.07*2*pi/ulx,y,z
   ENINI  =  520.0     initial cutoff
   ENAUG  =  605.4 eV  augmentation charge cutoff
   NELM   =    100;   NELMIN=  2; NELMDL= -5     # of ELM steps 
   EDIFF  = 0.1E-02   stopping-criterion for ELM
   LREAL  =      T    real-space projection
   NLSPLINE    = F    spline interpolate recip. space projectors
   LCOMPAT=      F    compatible to vasp.4.4
   GGA_COMPAT  = T    GGA compatible to vasp.4.4-vasp.4.6
   LMAXPAW     = -100 max onsite density
   LMAXMIX     =    6 max onsite mixed and CHGCAR
   VOSKOWN=      0    Vosko Wilk Nusair interpolation
   ROPT   =   -0.00025  -0.00025  -0.00025  -0.00025
 Ionic relaxation
   EDIFFG = 0.1E-01   stopping-criterion for IOM
   NSW    =      0    number of steps for IOM
   NBLOCK =      1;   KBLOCK =      1    inner block; outer block 
   IBRION =     -1    ionic relax: 0-MD 1-quasi-New 2-CG
   NFREE  =      0    steps in history (QN), initial steepest desc. (CG)
   ISIF   =      2    stress and relaxation
   IWAVPR =     10    prediction:  0-non 1-charg 2-wave 3-comb
   ISYM   =      2    0-nonsym 1-usesym 2-fastsym
   LCORR  =      T    Harris-Foulkes like correction to forces

   POTIM  = 0.5000    time-step for ionic-motion
   TEIN   =    0.0    initial temperature
   TEBEG  =    0.0;   TEEND  =   0.0 temperature during run
   SMASS  =  -3.00    Nose mass-parameter (am)
   estimated Nose-frequenzy (Omega)   =  0.10E-29 period in steps =****** mass=  -0.680E-27a.u.
   SCALEE = 1.0000    scale energy and forces
   NPACO  =    256;   APACO  = 16.0  distance and # of slots for P.C.
   PSTRESS=    0.0 pullay stress

  Mass of Ions in am
   POMASS = 138.90 54.94 58.69 16.00
  Ionic Valenz
   ZVAL   =  11.00  7.00 10.00  6.00
  Atomic Wigner-Seitz radii
   RWIGS  =  -1.00 -1.00 -1.00 -1.00
  virtual crystal weights 
   VCA    =   1.00  1.00  1.00  1.00
   NELECT =     153.0000    total number of electrons
   NUPDOWN=      -1.0000    fix difference up-down

 DOS related values:
   EMIN   =  10.00;   EMAX   =-10.00  energy-range for DOS
   EFERMI =   0.00
   ISMEAR =    -5;   SIGMA  =   0.05  broadening in eV -4-tet -1-fermi 0-gaus

 Electronic relaxation 2 (details)
   IALGO  =     68    algorithm
   LDIAG  =      T    sub-space diagonalisation (order eigenvalues)
   LSUBROT=      F    optimize rotation matrix (better conditioning)
   TURBO    =      0    0=normal 1=particle mesh
   IRESTART =      0    0=no restart 2=restart with 2 vectors
   NREBOOT  =      0    no. of reboots
   NMIN     =      0    reboot dimension
   EREF     =   0.00    reference energy to select bands
   IMIX   =      4    mixing-type and parameters
     AMIX     =   0.40;   BMIX     =  1.00
     AMIX_MAG =   1.60;   BMIX_MAG =  1.00
     AMIN     =   0.10
     WC   =   100.;   INIMIX=   1;  MIXPRE=   1;  MAXMIX= -45

 Intra band minimization:
   WEIMIN = 0.0000     energy-eigenvalue tresh-hold
   EBREAK =  0.26E-05  absolut break condition
   DEPER  =   0.30     relativ break condition  

   TIME   =   0.40     timestep for ELM

  volume/ion in A,a.u.               =      11.51        77.66
  Fermi-wavevector in a.u.,A,eV,Ry     =   1.428739  2.699925 27.773497  2.041294
  Thomas-Fermi vector in A             =   2.548768
 
 Write flags
   LWAVE        =      F    write WAVECAR
   LDOWNSAMPLE  =      F    k-point downsampling of WAVECAR
   LCHARG       =      T    write CHGCAR
   LVTOT        =      F    write LOCPOT, total local potential
   LVHAR        =      F    write LOCPOT, Hartree potential only
   LELF         =      F    write electronic localiz. function (ELF)
   LORBIT       =     11    0 simple, 1 ext, 2 COOP (PROOUT), +10 PAW based schemes


 Dipole corrections
   LMONO  =      F    monopole corrections only (constant potential shift)
   LDIPOL =      F    correct potential (dipole corrections)
   IDIPOL =      0    1-x, 2-y, 3-z, 4-all directions 
   EPSILON=  1.0000000 bulk dielectric constant

 LDA+U is selected, type is set to LDAUTYPE =  2
   angular momentum for each species LDAUL =     0    2    2    0
   U (eV)           for each species LDAUU =   0.0  3.9  6.2  0.0
   J (eV)           for each species LDAUJ =   0.0  0.0  0.0  0.0
 Exchange correlation treatment:
   GGA     =    --    GGA type
   LEXCH   =     8    internal setting for exchange type
   VOSKOWN=      0    Vosko Wilk Nusair interpolation
   LHFCALC =     F    Hartree Fock is set to
   LHFONE  =     F    Hartree Fock one center treatment
   AEXX    =    0.0000 exact exchange contribution

 Linear response parameters
   LEPSILON=     F    determine dielectric tensor
   LRPA    =     F    only Hartree local field effects (RPA)
   LNABLA  =     F    use nabla operator in PAW spheres
   LVEL    =     F    velocity operator in full k-point grid
   LINTERFAST=   F  fast interpolation
   KINTER  =     0    interpolate to denser k-point grid
   CSHIFT  =0.1000    complex shift for real part using Kramers Kronig
   OMEGAMAX=  -1.0    maximum frequency
   DEG_THRESHOLD= 0.2000000E-02 threshold for treating states as degnerate
   RTIME   =   -0.100 relaxation time in fs
  (WPLASMAI=    0.000 imaginary part of plasma frequency in eV, 0.658/RTIME)
   DFIELD  = 0.0000000 0.0000000 0.0000000 field for delta impulse in time
 
 Orbital magnetization related:
   ORBITALMAG=     F  switch on orbital magnetization
   LCHIMAG   =     F  perturbation theory with respect to B field
   DQ        =  0.001000  dq finite difference perturbation B field
   LLRAUG    =     F  two centre corrections for induced B field



--------------------------------------------------------------------------------------------------------


 Static calculation
 charge density and potential will be updated during run
 spin polarized calculation
 RMM-DIIS sequential band-by-band and
  variant of blocked Davidson during initial phase
 perform sub-space diagonalisation
    before iterative eigenvector-optimisation
 modified Broyden-mixing scheme, WC =      100.0
 initial mixing is a Kerker type mixing with AMIX =  0.4000 and BMIX =      1.0000
 Hartree-type preconditioning will be used
 using additional bands           21
 real space projection scheme for non local part
 use partial core corrections
 calculate Harris-corrections to forces 
   (improved forces if not selfconsistent)
 use gradient corrections 
 use of overlap-Matrix (Vanderbilt PP)
 Fermi weights with tetrahedron method with Bloechl corrections


--------------------------------------------------------------------------------------------------------


  energy-cutoff  :      520.00
  volume of cell :      230.17
      direct lattice vectors                 reciprocal lattice vectors
     3.857928025 -3.857928025  0.000000000     0.129603247 -0.129603247  0.064662248
     3.857928025  3.857928025  0.000000000     0.129603247  0.129603247  0.064662248
    -3.857928025  0.000000000  7.732487071     0.000000000  0.000000000  0.129324497

  length of vectors
     5.455934135  5.455934135  8.641467754     0.194358457  0.194358457  0.129324497


 
 k-points in units of 2pi/SCALE and weight: Automatic mesh                          
   0.00000000  0.00000000  0.00000000       0.021
   0.03240081 -0.03240081  0.01616556       0.083
   0.06480162 -0.06480162  0.03233112       0.042
   0.06480162  0.00000000  0.03233112       0.042
   0.09720244 -0.03240081  0.04849669       0.083
   0.00000000  0.06480162  0.00000000       0.042
   0.12960325  0.00000000  0.06466225       0.021
   0.00000000  0.00000000  0.04310817       0.042
   0.03240081 -0.03240081  0.05927373       0.083
   0.06480162 -0.06480162  0.07543929       0.083
  -0.03240081  0.03240081  0.02694260       0.083
   0.06480162  0.00000000  0.07543929       0.042
   0.09720244 -0.03240081  0.09160485       0.083
   0.00000000  0.06480162  0.04310817       0.083
   0.12960325  0.00000000  0.10777041       0.042
   0.03240081  0.09720244  0.05927373       0.083
  -0.06480162  0.00000000  0.01077704       0.042
 
 k-points in reciprocal lattice and weights: Automatic mesh                          
   0.00000000  0.00000000  0.00000000       0.021
   0.25000000  0.00000000 -0.00000000       0.083
   0.50000000  0.00000000 -0.00000000       0.042
   0.25000000  0.25000000 -0.00000000       0.042
   0.50000000  0.25000000 -0.00000000       0.083
  -0.25000000  0.25000000  0.00000000       0.042
   0.50000000  0.50000000 -0.00000000       0.021
   0.00000000  0.00000000  0.33333333       0.042
   0.25000000  0.00000000  0.33333333       0.083
   0.50000000  0.00000000  0.33333333       0.083
  -0.25000000  0.00000000  0.33333333       0.083
   0.25000000  0.25000000  0.33333333       0.042
   0.50000000  0.25000000  0.33333333       0.083
  -0.25000000  0.25000000  0.33333333       0.083
   0.50000000  0.50000000  0.33333333       0.042
  -0.25000000  0.50000000  0.33333333       0.083
  -0.25000000 -0.25000000  0.33333333       0.042
 
 position of ions in fractional coordinates (direct lattice) 
   0.24844506  0.24844506  0.49689011
   0.50155494  0.50155494  0.00310989
   0.74844506  0.74844506  0.49689011
   0.00155494  0.00155494  0.00310989
   0.87500000  0.37500000  0.75000000
   0.12547456  0.62547456  0.25094912
   0.37500000  0.87500000  0.75000000
   0.62452544  0.12452544  0.24905088
   0.75177614  0.25177614  0.50355228
   0.49938832  0.99938832  0.99877664
   0.25061168  0.75061168  0.50122336
   0.99822386  0.49822386  0.99644772
   0.12061985  0.12938015  0.75000000
   0.87500000  0.87500000  0.25000000
   0.62938015  0.62061985  0.75000000
   0.37500000  0.37500000  0.25000000
   0.62938015  0.12938015  0.75000000
   0.37500000  0.87500000  0.25000000
   0.12061985  0.62061985  0.75000000
   0.87500000  0.37500000  0.25000000
 
 position of ions in cartesian coordinates  (Angst):
   0.00000000  0.00000000  3.84219638
   3.85792802  0.00000000  0.02404716
   3.85792802  0.00000000  3.84219638
  -0.00000000  0.00000000  0.02404716
   1.92896401 -1.92896401  5.79936530
   1.92896401  1.92896401  1.94046086
   1.92896401  1.92896401  5.79936530
   1.92896401 -1.92896401  1.92578267
   1.92896401 -1.92896401  3.89371149
   1.92896401  1.92896401  7.72302744
   1.92896401  1.92896401  3.87570317
   1.92896401 -1.92896401  7.70501912
  -1.92896401  0.03379657  5.79936530
   5.78689204  0.00000000  1.93312177
   1.92896401 -0.03379657  5.79936530
   1.92896401  0.00000000  1.93312177
   0.03379657 -1.92896401  5.79936530
   3.85792802  1.92896401  1.93312177
  -0.03379657  1.92896401  5.79936530
   3.85792802 -1.92896401  1.93312177
 


--------------------------------------------------------------------------------------------------------


 k-point  1 :   0.0000 0.0000 0.0000  plane waves:    6213
 k-point  2 :   0.2500 0.0000-0.0000  plane waves:    6186
 k-point  3 :   0.5000 0.0000-0.0000  plane waves:    6194
 k-point  4 :   0.2500 0.2500-0.0000  plane waves:    6201
 k-point  5 :   0.5000 0.2500-0.0000  plane waves:    6207
 k-point  6 :  -0.2500 0.2500 0.0000  plane waves:    6182
 k-point  7 :   0.5000 0.5000-0.0000  plane waves:    6218
 k-point  8 :   0.0000 0.0000 0.3333  plane waves:    6185
 k-point  9 :   0.2500 0.0000 0.3333  plane waves:    6196
 k-point 10 :   0.5000 0.0000 0.3333  plane waves:    6201
 k-point 11 :  -0.2500 0.0000 0.3333  plane waves:    6189
 k-point 12 :   0.2500 0.2500 0.3333  plane waves:    6209
 k-point 13 :   0.5000 0.2500 0.3333  plane waves:    6209
 k-point 14 :  -0.2500 0.2500 0.3333  plane waves:    6212
 k-point 15 :   0.5000 0.5000 0.3333  plane waves:    6212
 k-point 16 :  -0.2500 0.5000 0.3333  plane waves:    6198
 k-point 17 :  -0.2500-0.2500 0.3333  plane waves:    6180

 maximum and minimum number of plane-waves per node :       641      600

 maximum number of plane-waves:      6218
 maximum index in each direction: 
   IXMAX=   10   IYMAX=   10   IZMAX=   16
   IXMIN=  -10   IYMIN=  -10   IZMIN=  -16


 real space projection operators:
  total allocation   :      14390.56 KBytes
  max/ min on nodes  :       1786.88       1332.45


 parallel 3D FFT for wavefunctions:
    minimum data exchange during FFTs selected (reduces bandwidth)
 parallel 3D FFT for charge:
    minimum data exchange during FFTs selected (reduces bandwidth)


 total amount of memory used by VASP MPI-rank0    61730. kBytes
=======================================================================

   base      :      30000. kBytes
   nonlr-proj:       5207. kBytes
   fftplans  :       2158. kBytes
   grid      :       6310. kBytes
   one-center:        196. kBytes
   wavefun   :      17859. kBytes
 
     INWAV:  cpu time    0.0000: real time    0.0000
 Broyden mixing: mesh for mixing (old mesh)
   NGX = 21   NGY = 21   NGZ = 33
  (NGX  = 84   NGY  = 84   NGZ  =128)
  gives a total of  14553 points

 initial charge density was supplied:
 charge density of overlapping atoms calculated
 number of electron     153.0000000 magnetization      13.0000000
 keeping initial charge density in first step


--------------------------------------------------------------------------------------------------------


 Maximum index for non-local projection operator         1257
 Maximum index for augmentation-charges         1947 (set IRDMAX)


--------------------------------------------------------------------------------------------------------


 First call to EWALD:  gamma=   0.289
 Maximum number of real-space cells 3x 3x 2
 Maximum number of reciprocal cells 2x 2x 4

    FEWALD:  cpu time    0.0022: real time    0.0026


--------------------------------------- Iteration      1(   1)  ---------------------------------------


    POTLOK:  cpu time    0.0561: real time    0.0582
    SETDIJ:  cpu time    0.0126: real time    0.0127
atom =   1  type =  1  l = 0
 
 onsite density matrix
 
spin component  1
 
  1.0989
 
spin component  2
 
  1.0989
 
 occupancies and eigenvectors
 
  o =  1.0989  v =  1.0000  0.0000      0.0000  0.0000
  o =  1.0989  v =  0.0000  1.0000      0.0000  0.0000
atom =   2  type =  1  l = 0
 
 onsite density matrix
 
spin component  1
 
  1.0989
 
spin component  2
 
  1.0989
 
 occupancies and eigenvectors
 
  o =  1.0989  v =  1.0000  0.0000      0.0000  0.0000
  o =  1.0989  v =  0.0000  1.0000      0.0000  0.0000
atom =   3  type =  1  l = 0
 
 onsite density matrix
 
spin component  1
 
  1.0989
 
spin component  2
 
  1.0989
 
 occupancies and eigenvectors
 
  o =  1.0989  v =  1.0000  0.0000      0.0000  0.0000
  o =  1.0989  v =  0.0000  1.0000      0.0000  0.0000
atom =   4  type =  1  l = 0
 
 onsite density matrix
 
spin component  1
 
  1.0989
 
spin component  2
 
  1.0989
 
 occupancies and eigenvectors
 
  o =  1.0989  v =  1.0000  0.0000      0.0000  0.0000
  o =  1.0989  v =  0.0000  1.0000      0.0000  0.0000
atom =   5  type =  2  l = 2
 
 onsite density matrix
 
spin component  1
 
  0.8272  0.0000  0.0000  0.0000  0.0000
  0.0000  0.8272  0.0000  0.0000  0.0000
  0.0000  0.0000  0.8272  0.0000  0.0000
  0.0000  0.0000  0.0000  0.8272  0.0000
  0.0000  0.0000  0.0000  0.0000  0.8272
 
spin component  2
 
  0.2256  0.0000  0.0000  0.0000  0.0000
  0.0000  0.2256  0.0000  0.0000  0.0000
  0.0000  0.0000  0.2256  0.0000  0.0000
  0.0000  0.0000  0.0000  0.2256  0.0000
  0.0000  0.0000  0.0000  0.0000  0.2256
 
 occupancies and eigenvectors
 
  o =  0.2256  v =  0.0000  0.0000  0.0000  0.0000  0.0000  0.0000  0.0000  1.0000  0.0000  0.0000      0.0000  0.0000  0.0000  0.0000  0.0000  0.0000  0.0000  0.0000  0.0000  0.0000
  o =  0.2256  v =  0.0000  0.0000  0.0000  0.0000  0.0000  1.0000  0.0000  0.0000  0.0000  0.0000      0.0000  0.0000  0.0000  0.0000  0.0000  0.0000  0.0000  0.0000  0.0000  0.0000
  o =  0.2256  v =  0.0000  0.0000  0.0000  0.0000  0.0000  0.0000  1.0000  0.0000  0.0000  0.0000      0.0000  0.0000  0.0000  0.0000  0.0000  0.0000  0.0000  0.0000  0.0000  0.0000
  o =  0.2256  v =  0.0000  0.0000  0.0000  0.0000  0.0000  0.0000  0.0000  0.0000  1.0000  0.0000      0.0000  0.0000  0.0000  0.0000  0.0000  0.0000  0.0000  0.0000  0.0000  0.0000
  o =  0.2256  v =  0.0000  0.0000  0.0000  0.0000  0.0000  0.0000  0.0000  0.0000  0.0000  1.0000      0.0000  0.0000  0.0000  0.0000  0.0000  0.0000  0.0000  0.0000  0.0000  0.0000
  o =  0.8272  v =  0.0000  1.0000  0.0000  0.0000  0.0000  0.0000  0.0000  0.0000  0.0000  0.0000      0.0000  0.0000  0.0000  0.0000  0.0000  0.0000  0.0000  0.0000  0.0000  0.0000
  o =  0.8272  v =  0.0000  0.0000  1.0000  0.0000  0.0000  0.0000  0.0000  0.0000  0.0000  0.0000      0.0000  0.0000  0.0000  0.0000  0.0000  0.0000  0.0000  0.0000  0.0000  0.0000
  o =  0.8272  v =  1.0000  0.0000  0.0000  0.0000  0.0000  0.0000  0.0000  0.0000  0.0000  0.0000      0.0000  0.0000  0.0000  0.0000  0.0000  0.0000  0.0000  0.0000  0.0000  0.0000
  o =  0.8272  v =  0.0000  0.0000  0.0000  1.0000  0.0000  0.0000  0.0000  0.0000  0.0000  0.0000      0.0000  0.0000  0.0000  0.0000  0.0000  0.0000  0.0000  0.0000  0.0000  0.0000
  o =  0.8272  v =  0.0000  0.0000  0.0000  0.0000  1.0000  0.0000  0.0000  0.0000  0.0000  0.0000      0.0000  0.0000  0.0000  0.0000  0.0000  0.0000  0.0000  0.0000  0.0000  0.0000
atom =   6  type =  3  l = 2
 
 onsite density matrix
 
spin component  1
 
  1.1008  0.0000  0.0000  0.0000  0.0000
  0.0000  1.1008  0.0000  0.0000  0.0000
  0.0000  0.0000  1.1008  0.0000  0.0000
  0.0000  0.0000  0.0000  1.1008  0.0000
  0.0000  0.0000  0.0000  0.0000  1.1008
 
spin component  2
 
  0.5927  0.0000  0.0000  0.0000  0.0000
  0.0000  0.5927  0.0000  0.0000  0.0000
  0.0000  0.0000  0.5927  0.0000  0.0000
  0.0000  0.0000  0.0000  0.5927  0.0000
  0.0000  0.0000  0.0000  0.0000  0.5927
 
 occupancies and eigenvectors
 
  o =  0.5927  v =  0.0000  0.0000  0.0000  0.0000  0.0000  1.0000  0.0000  0.0000  0.0000  0.0000      0.0000  0.0000  0.0000  0.0000  0.0000  0.0000  0.0000  0.0000  0.0000  0.0000
  o =  0.5927  v =  0.0000  0.0000  0.0000  0.0000  0.0000  0.0000  1.0000  0.0000  0.0000  0.0000      0.0000  0.0000  0.0000  0.0000  0.0000  0.0000  0.0000  0.0000  0.0000  0.0000
  o =  0.5927  v =  0.0000  0.0000  0.0000  0.0000  0.0000  0.0000  0.0000  1.0000  0.0000  0.0000      0.0000  0.0000  0.0000  0.0000  0.0000  0.0000  0.0000  0.0000  0.0000  0.0000
  o =  0.5927  v =  0.0000  0.0000  0.0000  0.0000  0.0000  0.0000  0.0000  0.0000  1.0000  0.0000      0.0000  0.0000  0.0000  0.0000  0.0000  0.0000  0.0000  0.0000  0.0000  0.0000
  o =  0.5927  v =  0.0000  0.0000  0.0000  0.0000  0.0000  0.0000  0.0000  0.0000  0.0000  1.0000      0.0000  0.0000  0.0000  0.0000  0.0000  0.0000  0.0000  0.0000  0.0000  0.0000
  o =  1.1008  v =  1.0000  0.0000  0.0000  0.0000  0.0000  0.0000  0.0000  0.0000  0.0000  0.0000      0.0000  0.0000  0.0000  0.0000  0.0000  0.0000  0.0000  0.0000  0.0000  0.0000
  o =  1.1008  v =  0.0000  1.0000  0.0000  0.0000  0.0000  0.0000  0.0000  0.0000  0.0000  0.0000      0.0000  0.0000  0.0000  0.0000  0.0000  0.0000  0.0000  0.0000  0.0000  0.0000
  o =  1.1008  v =  0.0000  0.0000  1.0000  0.0000  0.0000  0.0000  0.0000  0.0000  0.0000  0.0000      0.0000  0.0000  0.0000  0.0000  0.0000  0.0000  0.0000  0.0000  0.0000  0.0000
  o =  1.1008  v =  0.0000  0.0000  0.0000  1.0000  0.0000  0.0000  0.0000  0.0000  0.0000  0.0000      0.0000  0.0000  0.0000  0.0000  0.0000  0.0000  0.0000  0.0000  0.0000  0.0000
  o =  1.1008  v =  0.0000  0.0000  0.0000  0.0000  1.0000  0.0000  0.0000  0.0000  0.0000  0.0000      0.0000  0.0000  0.0000  0.0000  0.0000  0.0000  0.0000  0.0000  0.0000  0.0000
atom =   7  type =  3  l = 2
 
 onsite density matrix
 
spin component  1
 
  1.1008  0.0000  0.0000  0.0000  0.0000
  0.0000  1.1008  0.0000  0.0000  0.0000
  0.0000  0.0000  1.1008  0.0000  0.0000
  0.0000  0.0000  0.0000  1.1008  0.0000
  0.0000  0.0000  0.0000  0.0000  1.1008
 
spin component  2
 
  0.5927  0.0000  0.0000  0.0000  0.0000
  0.0000  0.5927  0.0000  0.0000  0.0000
  0.0000  0.0000  0.5927  0.0000  0.0000
  0.0000  0.0000  0.0000  0.5927  0.0000
  0.0000  0.0000  0.0000  0.0000  0.5927
 
 occupancies and eigenvectors
 
  o =  0.5927  v =  0.0000  0.0000  0.0000  0.0000  0.0000  1.0000  0.0000  0.0000  0.0000  0.0000      0.0000  0.0000  0.0000  0.0000  0.0000  0.0000  0.0000  0.0000  0.0000  0.0000
  o =  0.5927  v =  0.0000  0.0000  0.0000  0.0000  0.0000  0.0000  1.0000  0.0000  0.0000  0.0000      0.0000  0.0000  0.0000  0.0000  0.0000  0.0000  0.0000  0.0000  0.0000  0.0000
  o =  0.5927  v =  0.0000  0.0000  0.0000  0.0000  0.0000  0.0000  0.0000  1.0000  0.0000  0.0000      0.0000  0.0000  0.0000  0.0000  0.0000  0.0000  0.0000  0.0000  0.0000  0.0000
  o =  0.5927  v =  0.0000  0.0000  0.0000  0.0000  0.0000  0.0000  0.0000  0.0000  1.0000  0.0000      0.0000  0.0000  0.0000  0.0000  0.0000  0.0000  0.0000  0.0000  0.0000  0.0000
  o =  0.5927  v =  0.0000  0.0000  0.0000  0.0000  0.0000  0.0000  0.0000  0.0000  0.0000  1.0000      0.0000  0.0000  0.0000  0.0000  0.0000  0.0000  0.0000  0.0000  0.0000  0.0000
  o =  1.1008  v =  1.0000  0.0000  0.0000  0.0000  0.0000  0.0000  0.0000  0.0000  0.0000  0.0000      0.0000  0.0000  0.0000  0.0000  0.0000  0.0000  0.0000  0.0000  0.0000  0.0000
  o =  1.1008  v =  0.0000  1.0000  0.0000  0.0000  0.0000  0.0000  0.0000  0.0000  0.0000  0.0000      0.0000  0.0000  0.0000  0.0000  0.0000  0.0000  0.0000  0.0000  0.0000  0.0000
  o =  1.1008  v =  0.0000  0.0000  1.0000  0.0000  0.0000  0.0000  0.0000  0.0000  0.0000  0.0000      0.0000  0.0000  0.0000  0.0000  0.0000  0.0000  0.0000  0.0000  0.0000  0.0000
  o =  1.1008  v =  0.0000  0.0000  0.0000  1.0000  0.0000  0.0000  0.0000  0.0000  0.0000  0.0000      0.0000  0.0000  0.0000  0.0000  0.0000  0.0000  0.0000  0.0000  0.0000  0.0000
  o =  1.1008  v =  0.0000  0.0000  0.0000  0.0000  1.0000  0.0000  0.0000  0.0000  0.0000  0.0000      0.0000  0.0000  0.0000  0.0000  0.0000  0.0000  0.0000  0.0000  0.0000  0.0000
atom =   8  type =  3  l = 2
 
 onsite density matrix
 
spin component  1
 
  1.1008  0.0000  0.0000  0.0000  0.0000
  0.0000  1.1008  0.0000  0.0000  0.0000
  0.0000  0.0000  1.1008  0.0000  0.0000
  0.0000  0.0000  0.0000  1.1008  0.0000
  0.0000  0.0000  0.0000  0.0000  1.1008
 
spin component  2
 
  0.5927  0.0000  0.0000  0.0000  0.0000
  0.0000  0.5927  0.0000  0.0000  0.0000
  0.0000  0.0000  0.5927  0.0000  0.0000
  0.0000  0.0000  0.0000  0.5927  0.0000
  0.0000  0.0000  0.0000  0.0000  0.5927
 
 occupancies and eigenvectors
 
  o =  0.5927  v =  0.0000  0.0000  0.0000  0.0000  0.0000  1.0000  0.0000  0.0000  0.0000  0.0000      0.0000  0.0000  0.0000  0.0000  0.0000  0.0000  0.0000  0.0000  0.0000  0.0000
  o =  0.5927  v =  0.0000  0.0000  0.0000  0.0000  0.0000  0.0000  1.0000  0.0000  0.0000  0.0000      0.0000  0.0000  0.0000  0.0000  0.0000  0.0000  0.0000  0.0000  0.0000  0.0000
  o =  0.5927  v =  0.0000  0.0000  0.0000  0.0000  0.0000  0.0000  0.0000  1.0000  0.0000  0.0000      0.0000  0.0000  0.0000  0.0000  0.0000  0.0000  0.0000  0.0000  0.0000  0.0000
  o =  0.5927  v =  0.0000  0.0000  0.0000  0.0000  0.0000  0.0000  0.0000  0.0000  1.0000  0.0000      0.0000  0.0000  0.0000  0.0000  0.0000  0.0000  0.0000  0.0000  0.0000  0.0000
  o =  0.5927  v =  0.0000  0.0000  0.0000  0.0000  0.0000  0.0000  0.0000  0.0000  0.0000  1.0000      0.0000  0.0000  0.0000  0.0000  0.0000  0.0000  0.0000  0.0000  0.0000  0.0000
  o =  1.1008  v =  1.0000  0.0000  0.0000  0.0000  0.0000  0.0000  0.0000  0.0000  0.0000  0.0000      0.0000  0.0000  0.0000  0.0000  0.0000  0.0000  0.0000  0.0000  0.0000  0.0000
  o =  1.1008  v =  0.0000  1.0000  0.0000  0.0000  0.0000  0.0000  0.0000  0.0000  0.0000  0.0000      0.0000  0.0000  0.0000  0.0000  0.0000  0.0000  0.0000  0.0000  0.0000  0.0000
  o =  1.1008  v =  0.0000  0.0000  1.0000  0.0000  0.0000  0.0000  0.0000  0.0000  0.0000  0.0000      0.0000  0.0000  0.0000  0.0000  0.0000  0.0000  0.0000  0.0000  0.0000  0.0000
  o =  1.1008  v =  0.0000  0.0000  0.0000  1.0000  0.0000  0.0000  0.0000  0.0000  0.0000  0.0000      0.0000  0.0000  0.0000  0.0000  0.0000  0.0000  0.0000  0.0000  0.0000  0.0000
  o =  1.1008  v =  0.0000  0.0000  0.0000  0.0000  1.0000  0.0000  0.0000  0.0000  0.0000  0.0000      0.0000  0.0000  0.0000  0.0000  0.0000  0.0000  0.0000  0.0000  0.0000  0.0000
atom =   9  type =  4  l = 0
 
 onsite density matrix
 
spin component  1
 
  0.8190
 
spin component  2
 
  0.8190
 
 occupancies and eigenvectors
 
  o =  0.8190  v =  1.0000  0.0000      0.0000  0.0000
  o =  0.8190  v =  0.0000  1.0000      0.0000  0.0000
atom =  10  type =  4  l = 0
 
 onsite density matrix
 
spin component  1
 
  0.8190
 
spin component  2
 
  0.8190
 
 occupancies and eigenvectors
 
  o =  0.8190  v =  1.0000  0.0000      0.0000  0.0000
  o =  0.8190  v =  0.0000  1.0000      0.0000  0.0000
atom =  11  type =  4  l = 0
 
 onsite density matrix
 
spin component  1
 
  0.8190
 
spin component  2
 
  0.8190
 
 occupancies and eigenvectors
 
  o =  0.8190  v =  1.0000  0.0000      0.0000  0.0000
  o =  0.8190  v =  0.0000  1.0000      0.0000  0.0000
atom =  12  type =  4  l = 0
 
 onsite density matrix
 
spin component  1
 
  0.8190
 
spin component  2
 
  0.8190
 
 occupancies and eigenvectors
 
  o =  0.8190  v =  1.0000  0.0000      0.0000  0.0000
  o =  0.8190  v =  0.0000  1.0000      0.0000  0.0000
atom =  13  type =  4  l = 0
 
 onsite density matrix
 
spin component  1
 
  0.8190
 
spin component  2
 
  0.8190
 
 occupancies and eigenvectors
 
  o =  0.8190  v =  1.0000  0.0000      0.0000  0.0000
  o =  0.8190  v =  0.0000  1.0000      0.0000  0.0000
atom =  14  type =  4  l = 0
 
 onsite density matrix
 
spin component  1
 
  0.8190
 
spin component  2
 
  0.8190
 
 occupancies and eigenvectors
 
  o =  0.8190  v =  1.0000  0.0000      0.0000  0.0000
  o =  0.8190  v =  0.0000  1.0000      0.0000  0.0000
atom =  15  type =  4  l = 0
 
 onsite density matrix
 
spin component  1
 
  0.8190
 
spin component  2
 
  0.8190
 
 occupancies and eigenvectors
 
  o =  0.8190  v =  1.0000  0.0000      0.0000  0.0000
  o =  0.8190  v =  0.0000  1.0000      0.0000  0.0000
atom =  16  type =  4  l = 0
 
 onsite density matrix
 
spin component  1
 
  0.8190
 
spin component  2
 
  0.8190
 
 occupancies and eigenvectors
 
  o =  0.8190  v =  1.0000  0.0000      0.0000  0.0000
  o =  0.8190  v =  0.0000  1.0000      0.0000  0.0000
atom =  17  type =  4  l = 0
 
 onsite density matrix
 
spin component  1
 
  0.8190
 
spin component  2
 
  0.8190
 
 occupancies and eigenvectors
 
  o =  0.8190  v =  1.0000  0.0000      0.0000  0.0000
  o =  0.8190  v =  0.0000  1.0000      0.0000  0.0000
atom =  18  type =  4  l = 0
 
 onsite density matrix
 
spin component  1
 
  0.8190
 
spin component  2
 
  0.8190
 
 occupancies and eigenvectors
 
  o =  0.8190  v =  1.0000  0.0000      0.0000  0.0000
  o =  0.8190  v =  0.0000  1.0000      0.0000  0.0000
atom =  19  type =  4  l = 0
 
 onsite density matrix
 
spin component  1
 
  0.8190
 
spin component  2
 
  0.8190
 
 occupancies and eigenvectors
 
  o =  0.8190  v =  1.0000  0.0000      0.0000  0.0000
  o =  0.8190  v =  0.0000  1.0000      0.0000  0.0000
atom =  20  type =  4  l = 0
 
 onsite density matrix
 
spin component  1
 
  0.8190
 
spin component  2
 
  0.8190
 
 occupancies and eigenvectors
 
  o =  0.8190  v =  1.0000  0.0000      0.0000  0.0000
  o =  0.8190  v =  0.0000  1.0000      0.0000  0.0000
     EDDAV:  cpu time    2.8131: real time    2.8280
 BZINTS: Fermi energy: 29.936448;153.000000 electrons
         Band energy:2199.207836;  BLOECHL correction: -0.193569
       DOS:  cpu time    0.0221: real time    0.0228
    --------------------------------------------
      LOOP:  cpu time    2.9040: real time    2.9217

 eigenvalue-minimisations  :  7146
 total energy-change (2. order) : 0.2272333E+04  (-0.5616258E+04)
 number of electron     153.0000000 magnetization      13.0000000
 augmentation part      153.0000000 magnetization      13.0000000

 Free energy of the ion-electron system (eV)
  ---------------------------------------------------
  alpha Z        PSCENC =       661.61185087
  Ewald energy   TEWEN  =    -10794.90971166
  -Hartree energ DENC   =     -2517.26641286
  -exchange      EXHF   =         0.00000000
  -V(xc)+E(xc)   XCENC  =       546.17103932
  PAW double counting   =     10024.85533752   -10149.29831327
  entropy T*S    EENTRO =         0.00000000
  eigenvalues    EBANDS =      2199.20783636
  atomic energy  EATOM  =     12301.96174248
  Solvation  Ediel_sol  =         0.00000000
  ---------------------------------------------------
  free energy    TOTEN  =      2272.33336877 eV

  energy without entropy =     2272.33336877  energy(sigma->0) =     2272.33336877


--------------------------------------------------------------------------------------------------------




--------------------------------------- Iteration      1(   2)  ---------------------------------------


     EDDAV:  cpu time    2.9267: real time    2.9391
 BZINTS: Fermi energy: 15.978106;153.000000 electrons
         Band energy: 645.969162;  BLOECHL correction: -0.055561
       DOS:  cpu time    0.0238: real time    0.0238
    --------------------------------------------
      LOOP:  cpu time    2.9504: real time    2.9629

 eigenvalue-minimisations  :  7512
 total energy-change (2. order) :-0.1553239E+04  (-0.1409754E+04)
 number of electron     153.0000000 magnetization      13.0000000
 augmentation part      153.0000000 magnetization      13.0000000

 Free energy of the ion-electron system (eV)
  ---------------------------------------------------
  alpha Z        PSCENC =       661.61185087
  Ewald energy   TEWEN  =    -10794.90971166
  -Hartree energ DENC   =     -2517.26641286
  -exchange      EXHF   =         0.00000000
  -V(xc)+E(xc)   XCENC  =       546.17103932
  PAW double counting   =     10024.85533752   -10149.29831327
  entropy T*S    EENTRO =         0.00000000
  eigenvalues    EBANDS =       645.96916245
  atomic energy  EATOM  =     12301.96174248
  Solvation  Ediel_sol  =         0.00000000
  ---------------------------------------------------
  free energy    TOTEN  =       719.09469486 eV

  energy without entropy =      719.09469486  energy(sigma->0) =      719.09469486


--------------------------------------------------------------------------------------------------------




--------------------------------------- Iteration      1(   3)  ---------------------------------------


     EDDAV:  cpu time    2.8966: real time    2.9063
 BZINTS: Fermi energy: 12.342080;153.000000 electrons
         Band energy:  41.479821;  BLOECHL correction: -0.015625
       DOS:  cpu time    0.0243: real time    0.0244
    --------------------------------------------
      LOOP:  cpu time    2.9209: real time    2.9307

 eigenvalue-minimisations  :  7528
 total energy-change (2. order) :-0.6044893E+03  (-0.5504834E+03)
 number of electron     153.0000000 magnetization      13.0000000
 augmentation part      153.0000000 magnetization      13.0000000

 Free energy of the ion-electron system (eV)
  ---------------------------------------------------
  alpha Z        PSCENC =       661.61185087
  Ewald energy   TEWEN  =    -10794.90971166
  -Hartree energ DENC   =     -2517.26641286
  -exchange      EXHF   =         0.00000000
  -V(xc)+E(xc)   XCENC  =       546.17103932
  PAW double counting   =     10024.85533752   -10149.29831327
  entropy T*S    EENTRO =         0.00000000
  eigenvalues    EBANDS =        41.47982075
  atomic energy  EATOM  =     12301.96174248
  Solvation  Ediel_sol  =         0.00000000
  ---------------------------------------------------
  free energy    TOTEN  =       114.60535316 eV

  energy without entropy =      114.60535316  energy(sigma->0) =      114.60535316


--------------------------------------------------------------------------------------------------------




--------------------------------------- Iteration      1(   4)  ---------------------------------------


     EDDAV:  cpu time    3.9797: real time    3.9955
 BZINTS: Fermi energy: 11.768829;153.000000 electrons
         Band energy:-192.127965;  BLOECHL correction: -0.035825
       DOS:  cpu time    0.0240: real time    0.0240
    --------------------------------------------
      LOOP:  cpu time    4.0036: real time    4.0196

 eigenvalue-minimisations  : 10926
 total energy-change (2. order) :-0.2336078E+03  (-0.2231137E+03)
 number of electron     153.0000000 magnetization      13.0000000
 augmentation part      153.0000000 magnetization      13.0000000

 Free energy of the ion-electron system (eV)
  ---------------------------------------------------
  alpha Z        PSCENC =       661.61185087
  Ewald energy   TEWEN  =    -10794.90971166
  -Hartree energ DENC   =     -2517.26641286
  -exchange      EXHF   =         0.00000000
  -V(xc)+E(xc)   XCENC  =       546.17103932
  PAW double counting   =     10024.85533752   -10149.29831327
  entropy T*S    EENTRO =         0.00000000
  eigenvalues    EBANDS =      -192.12796460
  atomic energy  EATOM  =     12301.96174248
  Solvation  Ediel_sol  =         0.00000000
  ---------------------------------------------------
  free energy    TOTEN  =      -119.00243218 eV

  energy without entropy =     -119.00243218  energy(sigma->0) =     -119.00243218


--------------------------------------------------------------------------------------------------------




--------------------------------------- Iteration      1(   5)  ---------------------------------------


     EDDAV:  cpu time    4.3641: real time    4.3800
 BZINTS: Fermi energy: 11.283223;153.000000 electrons
         Band energy:-235.614013;  BLOECHL correction: -0.033764
       DOS:  cpu time    0.0234: real time    0.0234
    CHARGE:  cpu time    0.1392: real time    0.1399
    MIXING:  cpu time    0.0027: real time    0.0031
    --------------------------------------------
      LOOP:  cpu time    4.5295: real time    4.5464

 eigenvalue-minimisations  : 12310
 total energy-change (2. order) :-0.4348605E+02  (-0.4175299E+02)
 number of electron     152.9999994 magnetization      11.9228602
 augmentation part       21.1898739 magnetization       9.0391337

 Broyden mixing:
  rms(total) = 0.67051E+01    rms(broyden)= 0.67049E+01
  rms(prec ) = 0.81339E+01
  weight for this iteration     100.00

 Free energy of the ion-electron system (eV)
  ---------------------------------------------------
  alpha Z        PSCENC =       661.61185087
  Ewald energy   TEWEN  =    -10794.90971166
  -Hartree energ DENC   =     -2517.26641286
  -exchange      EXHF   =         0.00000000
  -V(xc)+E(xc)   XCENC  =       546.17103932
  PAW double counting   =     10024.85533752   -10149.29831327
  entropy T*S    EENTRO =         0.00000000
  eigenvalues    EBANDS =      -235.61401273
  atomic energy  EATOM  =     12301.96174248
  Solvation  Ediel_sol  =         0.00000000
  ---------------------------------------------------
  free energy    TOTEN  =      -162.48848032 eV

  energy without entropy =     -162.48848032  energy(sigma->0) =     -162.48848032


--------------------------------------------------------------------------------------------------------




--------------------------------------- Iteration      1(   6)  ---------------------------------------


    POTLOK:  cpu time    0.0518: real time    0.0535
    SETDIJ:  cpu time    0.0112: real time    0.0113
atom =   1  type =  1  l = 0
 
 onsite density matrix
 
spin component  1
 
  1.0571
 
spin component  2
 
  1.0570
 
 occupancies and eigenvectors
 
  o =  1.0570  v =  0.0000  1.0000      0.0000  0.0000
  o =  1.0571  v =  1.0000  0.0000      0.0000  0.0000
atom =   2  type =  1  l = 0
 
 onsite density matrix
 
spin component  1
 
  1.0571
 
spin component  2
 
  1.0570
 
 occupancies and eigenvectors
 
  o =  1.0570  v =  0.0000  1.0000      0.0000  0.0000
  o =  1.0571  v =  1.0000  0.0000      0.0000  0.0000
atom =   3  type =  1  l = 0
 
 onsite density matrix
 
spin component  1
 
  1.0571
 
spin component  2
 
  1.0570
 
 occupancies and eigenvectors
 
  o =  1.0570  v =  0.0000  1.0000      0.0000  0.0000
  o =  1.0571  v =  1.0000  0.0000      0.0000  0.0000
atom =   4  type =  1  l = 0
 
 onsite density matrix
 
spin component  1
 
  1.0571
 
spin component  2
 
  1.0570
 
 occupancies and eigenvectors
 
  o =  1.0570  v =  0.0000  1.0000      0.0000  0.0000
  o =  1.0571  v =  1.0000  0.0000      0.0000  0.0000
atom =   5  type =  2  l = 2
 
 onsite density matrix
 
spin component  1
 
  0.9687  0.0000  0.0000 -0.0000 -0.0000
  0.0000  0.9710  0.0000 -0.0000 -0.0000
  0.0000  0.0000  0.3458 -0.0000  0.0000
 -0.0000 -0.0000 -0.0000  0.9710 -0.0000
 -0.0000 -0.0000  0.0000 -0.0000  0.3460
 
spin component  2
 
  0.0297 -0.0000 -0.0000  0.0000  0.0000
 -0.0000  0.0264  0.0000  0.0000  0.0000
 -0.0000  0.0000  0.4563  0.0000 -0.0000
  0.0000  0.0000  0.0000  0.0264  0.0000
  0.0000  0.0000 -0.0000  0.0000  0.4591
 
 occupancies and eigenvectors
 
  o =  0.0264  v =  0.0000  0.0000  0.0000  0.0000  0.0000  0.0000 -0.8951 -0.0000  0.4459  0.0000      0.0000  0.0000  0.0000  0.0000  0.0000  0.0000  0.0000  0.0000  0.0000  0.0000
  o =  0.0264  v =  0.0000  0.0000  0.0000  0.0000  0.0000  0.0000  0.4459  0.0000  0.8951  0.0000      0.0000  0.0000  0.0000  0.0000  0.0000  0.0000  0.0000  0.0000  0.0000  0.0000
  o =  0.0297  v =  0.0000  0.0000  0.0000  0.0000  0.0000  1.0000  0.0000  0.0000  0.0000  0.0000      0.0000  0.0000  0.0000  0.0000  0.0000  0.0000  0.0000  0.0000  0.0000  0.0000
  o =  0.3458  v =  0.0000  0.0000  1.0000 -0.0000 -0.0000  0.0000  0.0000  0.0000  0.0000  0.0000      0.0000  0.0000  0.0000  0.0000  0.0000  0.0000  0.0000  0.0000  0.0000  0.0000
  o =  0.3460  v =  0.0000 -0.0000  0.0000  0.0000  1.0000  0.0000  0.0000  0.0000  0.0000  0.0000      0.0000  0.0000  0.0000  0.0000  0.0000  0.0000  0.0000  0.0000  0.0000  0.0000
  o =  0.4563  v =  0.0000  0.0000  0.0000  0.0000  0.0000  0.0000  0.0000 -1.0000  0.0000 -0.0000      0.0000  0.0000  0.0000  0.0000  0.0000  0.0000  0.0000  0.0000  0.0000  0.0000
  o =  0.4591  v =  0.0000  0.0000  0.0000  0.0000  0.0000  0.0000 -0.0000  0.0000  0.0000 -1.0000      0.0000  0.0000  0.0000  0.0000  0.0000  0.0000  0.0000  0.0000  0.0000  0.0000
  o =  0.9687  v =  1.0000  0.0000  0.0000  0.0000  0.0000  0.0000  0.0000  0.0000  0.0000  0.0000      0.0000  0.0000  0.0000  0.0000  0.0000  0.0000  0.0000  0.0000  0.0000  0.0000
  o =  0.9710  v =  0.0000  0.9376 -0.0000  0.3478  0.0000  0.0000  0.0000  0.0000  0.0000  0.0000      0.0000  0.0000  0.0000  0.0000  0.0000  0.0000  0.0000  0.0000  0.0000  0.0000
  o =  0.9710  v =  0.0000  0.3478 -0.0000 -0.9376  0.0000  0.0000  0.0000  0.0000  0.0000  0.0000      0.0000  0.0000  0.0000  0.0000  0.0000  0.0000  0.0000  0.0000  0.0000  0.0000
atom =   6  type =  3  l = 2
 
 onsite density matrix
 
spin component  1
 
  1.0086  0.0000 -0.0000  0.0000 -0.0000
  0.0000  0.9924  0.0000 -0.0000  0.0000
 -0.0000  0.0000  1.3221  0.0000  0.0000
  0.0000 -0.0000  0.0000  0.9924  0.0000
 -0.0000  0.0000  0.0000  0.0000  1.3342
 
spin component  2
 
  0.6248 -0.0000  0.0000 -0.0000  0.0000
 -0.0000  0.6509 -0.0000 -0.0000 -0.0000
  0.0000 -0.0000  0.1884 -0.0000  0.0000
 -0.0000 -0.0000 -0.0000  0.6509 -0.0000
  0.0000 -0.0000  0.0000 -0.0000  0.1860
 
 occupancies and eigenvectors
 
  o =  0.1860  v =  0.0000  0.0000  0.0000  0.0000  0.0000  0.0000  0.0000 -0.0000  0.0000  1.0000      0.0000  0.0000  0.0000  0.0000  0.0000  0.0000  0.0000  0.0000  0.0000  0.0000
  o =  0.1884  v =  0.0000  0.0000  0.0000  0.0000  0.0000  0.0000  0.0000  1.0000 -0.0000  0.0000      0.0000  0.0000  0.0000  0.0000  0.0000  0.0000  0.0000  0.0000  0.0000  0.0000
  o =  0.6248  v =  0.0000  0.0000  0.0000  0.0000  0.0000  1.0000  0.0000  0.0000  0.0000  0.0000      0.0000  0.0000  0.0000  0.0000  0.0000  0.0000  0.0000  0.0000  0.0000  0.0000
  o =  0.6509  v =  0.0000  0.0000  0.0000  0.0000  0.0000  0.0000  0.1899 -0.0000 -0.9818 -0.0000      0.0000  0.0000  0.0000  0.0000  0.0000  0.0000  0.0000  0.0000  0.0000  0.0000
  o =  0.6509  v =  0.0000  0.0000  0.0000  0.0000  0.0000  0.0000  0.9818 -0.0000  0.1899 -0.0000      0.0000  0.0000  0.0000  0.0000  0.0000  0.0000  0.0000  0.0000  0.0000  0.0000
  o =  0.9924  v =  0.0000  0.0203 -0.0000 -0.9998  0.0000  0.0000  0.0000  0.0000  0.0000  0.0000      0.0000  0.0000  0.0000  0.0000  0.0000  0.0000  0.0000  0.0000  0.0000  0.0000
  o =  0.9924  v =  0.0000 -0.9998 -0.0000 -0.0203 -0.0000  0.0000  0.0000  0.0000  0.0000  0.0000      0.0000  0.0000  0.0000  0.0000  0.0000  0.0000  0.0000  0.0000  0.0000  0.0000
  o =  1.0086  v =  1.0000  0.0000  0.0000  0.0000  0.0000  0.0000  0.0000  0.0000  0.0000  0.0000      0.0000  0.0000  0.0000  0.0000  0.0000  0.0000  0.0000  0.0000  0.0000  0.0000
  o =  1.3221  v =  0.0000  0.0000 -1.0000  0.0000  0.0000  0.0000  0.0000  0.0000  0.0000  0.0000      0.0000  0.0000  0.0000  0.0000  0.0000  0.0000  0.0000  0.0000  0.0000  0.0000
  o =  1.3342  v =  0.0000 -0.0000  0.0000  0.0000  1.0000  0.0000  0.0000  0.0000  0.0000  0.0000      0.0000  0.0000  0.0000  0.0000  0.0000  0.0000  0.0000  0.0000  0.0000  0.0000
atom =   7  type =  3  l = 2
 
 onsite density matrix
 
spin component  1
 
  0.9154  0.0000 -0.0000 -0.0000 -0.0000
  0.0000  1.0036  0.0000  0.0000  0.0000
 -0.0000  0.0000  1.3210 -0.0000  0.0000
 -0.0000  0.0000 -0.0000  1.0036  0.0000
 -0.0000  0.0000  0.0000  0.0000  1.3103
 
spin component  2
 
  0.7777 -0.0000  0.0000  0.0000  0.0000
 -0.0000  0.6325 -0.0000 -0.0000 -0.0000
  0.0000 -0.0000  0.1902  0.0000  0.0000
  0.0000 -0.0000  0.0000  0.6325 -0.0000
  0.0000 -0.0000  0.0000 -0.0000  0.1880
 
 occupancies and eigenvectors
 
  o =  0.1880  v =  0.0000  0.0000  0.0000  0.0000  0.0000  0.0000  0.0000  0.0000  0.0000 -1.0000      0.0000  0.0000  0.0000  0.0000  0.0000  0.0000  0.0000  0.0000  0.0000  0.0000
  o =  0.1902  v =  0.0000  0.0000  0.0000  0.0000  0.0000  0.0000 -0.0000  1.0000  0.0000  0.0000      0.0000  0.0000  0.0000  0.0000  0.0000  0.0000  0.0000  0.0000  0.0000  0.0000
  o =  0.6325  v =  0.0000  0.0000  0.0000  0.0000  0.0000  0.0000  0.6398  0.0000  0.7685  0.0000      0.0000  0.0000  0.0000  0.0000  0.0000  0.0000  0.0000  0.0000  0.0000  0.0000
  o =  0.6325  v =  0.0000  0.0000  0.0000  0.0000  0.0000  0.0000  0.7685  0.0000 -0.6398  0.0000      0.0000  0.0000  0.0000  0.0000  0.0000  0.0000  0.0000  0.0000  0.0000  0.0000
  o =  0.7777  v =  0.0000  0.0000  0.0000  0.0000  0.0000  1.0000  0.0000  0.0000  0.0000  0.0000      0.0000  0.0000  0.0000  0.0000  0.0000  0.0000  0.0000  0.0000  0.0000  0.0000
  o =  0.9154  v =  1.0000  0.0000  0.0000  0.0000  0.0000  0.0000  0.0000  0.0000  0.0000  0.0000      0.0000  0.0000  0.0000  0.0000  0.0000  0.0000  0.0000  0.0000  0.0000  0.0000
  o =  1.0036  v =  0.0000 -0.2063 -0.0000  0.9785  0.0000  0.0000  0.0000  0.0000  0.0000  0.0000      0.0000  0.0000  0.0000  0.0000  0.0000  0.0000  0.0000  0.0000  0.0000  0.0000
  o =  1.0036  v =  0.0000  0.9785  0.0000  0.2063  0.0000  0.0000  0.0000  0.0000  0.0000  0.0000      0.0000  0.0000  0.0000  0.0000  0.0000  0.0000  0.0000  0.0000  0.0000  0.0000
  o =  1.3103  v =  0.0000 -0.0000 -0.0000 -0.0000  1.0000  0.0000  0.0000  0.0000  0.0000  0.0000      0.0000  0.0000  0.0000  0.0000  0.0000  0.0000  0.0000  0.0000  0.0000  0.0000
  o =  1.3210  v =  0.0000  0.0000 -1.0000 -0.0000 -0.0000  0.0000  0.0000  0.0000  0.0000  0.0000      0.0000  0.0000  0.0000  0.0000  0.0000  0.0000  0.0000  0.0000  0.0000  0.0000
atom =   8  type =  3  l = 2
 
 onsite density matrix
 
spin component  1
 
  1.0086  0.0000  0.0000 -0.0000 -0.0000
  0.0000  0.9924  0.0000 -0.0000  0.0000
  0.0000  0.0000  1.3221 -0.0000 -0.0000
 -0.0000 -0.0000 -0.0000  0.9924 -0.0000
 -0.0000  0.0000 -0.0000 -0.0000  1.3342
 
spin component  2
 
  0.6248 -0.0000 -0.0000  0.0000  0.0000
 -0.0000  0.6509  0.0000  0.0000 -0.0000
 -0.0000  0.0000  0.1884 -0.0000  0.0000
  0.0000  0.0000 -0.0000  0.6509  0.0000
  0.0000 -0.0000  0.0000  0.0000  0.1860
 
 occupancies and eigenvectors
 
  o =  0.1860  v =  0.0000  0.0000  0.0000  0.0000  0.0000  0.0000  0.0000  0.0000 -0.0000 -1.0000      0.0000  0.0000  0.0000  0.0000  0.0000  0.0000  0.0000  0.0000  0.0000  0.0000
  o =  0.1884  v =  0.0000  0.0000  0.0000  0.0000  0.0000  0.0000 -0.0000 -1.0000  0.0000 -0.0000      0.0000  0.0000  0.0000  0.0000  0.0000  0.0000  0.0000  0.0000  0.0000  0.0000
  o =  0.6248  v =  0.0000  0.0000  0.0000  0.0000  0.0000  1.0000  0.0000  0.0000  0.0000  0.0000      0.0000  0.0000  0.0000  0.0000  0.0000  0.0000  0.0000  0.0000  0.0000  0.0000
  o =  0.6509  v =  0.0000  0.0000  0.0000  0.0000  0.0000  0.0000 -0.9690  0.0000 -0.2470 -0.0000      0.0000  0.0000  0.0000  0.0000  0.0000  0.0000  0.0000  0.0000  0.0000  0.0000
  o =  0.6509  v =  0.0000  0.0000  0.0000  0.0000  0.0000  0.0000 -0.2470  0.0000  0.9690  0.0000      0.0000  0.0000  0.0000  0.0000  0.0000  0.0000  0.0000  0.0000  0.0000  0.0000
  o =  0.9924  v =  0.0000  0.0323  0.0000  0.9995 -0.0000  0.0000  0.0000  0.0000  0.0000  0.0000      0.0000  0.0000  0.0000  0.0000  0.0000  0.0000  0.0000  0.0000  0.0000  0.0000
  o =  0.9924  v =  0.0000  0.9995 -0.0000 -0.0323  0.0000  0.0000  0.0000  0.0000  0.0000  0.0000      0.0000  0.0000  0.0000  0.0000  0.0000  0.0000  0.0000  0.0000  0.0000  0.0000
  o =  1.0086  v =  1.0000  0.0000  0.0000  0.0000  0.0000  0.0000  0.0000  0.0000  0.0000  0.0000      0.0000  0.0000  0.0000  0.0000  0.0000  0.0000  0.0000  0.0000  0.0000  0.0000
  o =  1.3221  v =  0.0000 -0.0000 -1.0000  0.0000  0.0000  0.0000  0.0000  0.0000  0.0000  0.0000      0.0000  0.0000  0.0000  0.0000  0.0000  0.0000  0.0000  0.0000  0.0000  0.0000
  o =  1.3342  v =  0.0000  0.0000 -0.0000 -0.0000 -1.0000  0.0000  0.0000  0.0000  0.0000  0.0000      0.0000  0.0000  0.0000  0.0000  0.0000  0.0000  0.0000  0.0000  0.0000  0.0000
atom =   9  type =  4  l = 0
 
 onsite density matrix
 
spin component  1
 
  0.8159
 
spin component  2
 
  0.8147
 
 occupancies and eigenvectors
 
  o =  0.8147  v =  0.0000  1.0000      0.0000  0.0000
  o =  0.8159  v =  1.0000  0.0000      0.0000  0.0000
atom =  10  type =  4  l = 0
 
 onsite density matrix
 
spin component  1
 
  0.8192
 
spin component  2
 
  0.8107
 
 occupancies and eigenvectors
 
  o =  0.8107  v =  0.0000  1.0000      0.0000  0.0000
  o =  0.8192  v =  1.0000  0.0000      0.0000  0.0000
[...]
  0.002  -0.001  -0.000  -0.027  -0.000   0.000   0.010  -0.000  -0.006   0.000  -0.003   0.000   0.000   0.003  -0.000   0.002
  0.000   0.000  -0.001   0.000   0.017   0.001  -0.000  -0.006  -0.000   0.005   0.000   0.019   0.000   0.000  -0.002   0.000
 -0.000  -0.000   0.000   0.000   0.000   0.000   0.000   0.000   0.000   0.000   0.000  -0.000   0.031   0.000  -0.000   0.000
  0.000   0.000  -0.004   0.000  -0.022  -0.000   0.000   0.008   0.000  -0.005   0.000   0.017  -0.000  -0.000   0.002   0.000
 -0.000   0.000  -0.031   0.000  -0.005   0.011   0.000  -0.000  -0.000   0.024  -0.000  -0.006   0.000   0.000  -0.010   0.000
 -0.001  -0.010   0.000  -0.002   0.000   0.000  -0.002  -0.000   0.018   0.000  -0.002  -0.000   0.000  -0.008  -0.000   0.001
  0.000  -0.000  -0.023  -0.000   0.002   0.008  -0.000  -0.001   0.000  -0.027   0.000  -0.007  -0.000  -0.000   0.012   0.000
 -0.002   0.001   0.000   0.037   0.000   0.000  -0.013  -0.000   0.008   0.000   0.005  -0.000  -0.000  -0.004   0.000  -0.002
  0.000   0.000   0.002   0.000  -0.023  -0.001  -0.000   0.008  -0.000  -0.007   0.000  -0.027   0.000   0.000   0.003   0.000
 -0.000   0.000  -0.000   0.000   0.000   0.000  -0.000  -0.000  -0.000  -0.000   0.000   0.000  -0.044   0.000  -0.000   0.000
  0.000   0.000   0.005  -0.000   0.031   0.000   0.000  -0.011  -0.000   0.006  -0.000  -0.024  -0.000   0.000  -0.003   0.000
 total augmentation occupancy for first ion, spin component:           2
  0.000  -0.000   0.000  -0.000   0.000   0.000  -0.000   0.000   0.000   0.000  -0.000   0.000  -0.000  -0.000  -0.000   0.000
 -0.000   0.004   0.000  -0.001   0.000   0.000   0.000   0.000   0.001   0.000  -0.000   0.000   0.000  -0.001  -0.000   0.000
  0.000   0.000   0.000   0.000   0.000  -0.000   0.000  -0.000   0.000  -0.000   0.000  -0.000   0.000  -0.000   0.000  -0.000
 -0.000  -0.001   0.000   0.000   0.000   0.000  -0.000   0.000  -0.001   0.000  -0.001   0.000   0.000  -0.000   0.000   0.000
  0.000   0.000   0.000   0.000   0.000  -0.000   0.000  -0.000   0.000  -0.000  -0.000  -0.000   0.000   0.000  -0.000   0.000
  0.000   0.000  -0.000   0.000  -0.000   0.000   0.000   0.000   0.000  -0.000   0.000   0.001   0.000  -0.000   0.000  -0.000
 -0.000   0.000   0.000  -0.000   0.000  -0.000   0.000  -0.000   0.001   0.000   0.001   0.000  -0.000  -0.000   0.000  -0.000
  0.000   0.000  -0.000   0.000  -0.000   0.000   0.000   0.000   0.000   0.001   0.000  -0.000   0.000   0.000  -0.000  -0.000
  0.000   0.001   0.000  -0.001   0.000   0.000   0.001   0.000   0.004   0.000   0.005   0.000   0.000  -0.001   0.000  -0.002
  0.000   0.000  -0.000   0.000  -0.000  -0.000   0.000   0.001   0.000   0.003   0.000   0.007   0.000   0.000  -0.001  -0.000
 -0.000  -0.000  -0.000  -0.001   0.000   0.000   0.001   0.000   0.005   0.000   0.017   0.000  -0.000  -0.002   0.000  -0.007
  0.000   0.000  -0.000   0.000  -0.000   0.001   0.000  -0.000   0.000   0.007   0.000   0.003  -0.000   0.000  -0.003   0.000
 -0.000  -0.000   0.000   0.000   0.000   0.000  -0.000   0.000   0.000   0.000  -0.000  -0.000   0.017   0.000   0.000  -0.000
 -0.000  -0.001  -0.000  -0.000   0.000   0.000  -0.000   0.000  -0.001   0.000  -0.002  -0.000   0.000   0.000   0.000   0.001
 -0.000  -0.000   0.000   0.000  -0.000   0.000   0.000  -0.000   0.000  -0.001   0.000  -0.003   0.000   0.000   0.000   0.000
  0.000   0.000  -0.000   0.000   0.000  -0.000  -0.000  -0.000  -0.002  -0.000  -0.007  -0.000  -0.000   0.001   0.000   0.003
  0.000   0.000  -0.000  -0.000   0.000  -0.000   0.000   0.000  -0.000  -0.003   0.000  -0.001   0.000  -0.000   0.001  -0.000
  0.000   0.000   0.000  -0.000  -0.000  -0.000   0.000  -0.000   0.000   0.000  -0.000  -0.000  -0.007  -0.000   0.000   0.000
  0.000   0.000   0.000   0.000  -0.000   0.000   0.000  -0.000   0.000   0.002   0.000  -0.001   0.000   0.000  -0.001   0.000
  0.000  -0.004  -0.000   0.000   0.000   0.000  -0.001   0.000   0.004   0.000  -0.000   0.000   0.000  -0.001   0.000   0.000
 -0.000   0.000   0.000   0.000   0.000   0.000  -0.000  -0.000   0.000   0.001   0.000  -0.001   0.000   0.000  -0.000  -0.000
 -0.000  -0.002   0.000  -0.000   0.000   0.000  -0.000  -0.000   0.000  -0.000  -0.002   0.000   0.000  -0.000  -0.000   0.000
  0.000   0.000   0.000  -0.000   0.000  -0.000   0.000   0.000   0.000  -0.001   0.000   0.001   0.000   0.000   0.000   0.000
  0.000   0.000  -0.000   0.000  -0.000  -0.000  -0.000   0.000   0.000  -0.000   0.000  -0.000  -0.003  -0.000   0.000   0.000
  0.000   0.000   0.000   0.000  -0.000   0.000   0.000  -0.000  -0.000   0.001   0.000  -0.002  -0.000  -0.000  -0.000   0.000
  0.000   0.000   0.000  -0.000   0.000  -0.000   0.000   0.000   0.000  -0.004   0.000   0.000  -0.000   0.000   0.001  -0.000
 -0.000   0.006  -0.000  -0.001  -0.000  -0.000   0.001   0.000  -0.006  -0.000   0.001   0.000   0.000   0.002  -0.000  -0.000
  0.000  -0.000   0.000   0.000  -0.000  -0.000  -0.000   0.000  -0.000  -0.001  -0.000   0.001   0.000  -0.000   0.000   0.000
  0.000   0.003  -0.000  -0.000   0.000   0.000   0.000  -0.000   0.000  -0.000   0.003   0.000  -0.000  -0.000  -0.000  -0.001
  0.000   0.000  -0.000  -0.000   0.000   0.000  -0.000  -0.000  -0.000   0.001   0.000  -0.001   0.000   0.000  -0.000  -0.000
 -0.000   0.000   0.000   0.000  -0.000   0.000   0.000   0.000  -0.000   0.000   0.000  -0.000   0.005   0.000   0.000  -0.000
  0.000   0.000  -0.000  -0.000  -0.000  -0.000   0.000   0.000   0.000  -0.000   0.000   0.004   0.000   0.000   0.000   0.000


------------------------ aborting loop because EDIFF is reached ----------------------------------------


 


 total charge     
 
# of ion       s       p       d       f       tot
--------------------------------------------------
    1        2.000   5.701   0.494   0.193   8.388
    2        2.000   5.701   0.494   0.193   8.388
    3        2.000   5.701   0.496   0.192   8.389
    4        2.000   5.701   0.496   0.192   8.389
    5        0.362   0.582   4.866   0.000   5.811
    6        0.423   0.633   8.313   0.000   9.369
    7        0.403   0.600   8.317   0.000   9.321
    8        0.423   0.633   8.313   0.000   9.369
    9        1.562   3.458   0.000   0.000   5.021
   10        1.562   3.433   0.000   0.000   4.994
   11        1.562   3.433   0.000   0.000   4.995
   12        1.562   3.458   0.000   0.000   5.021
   13        1.562   3.459   0.000   0.000   5.021
   14        1.562   3.443   0.000   0.000   5.005
   15        1.562   3.459   0.000   0.000   5.021
   16        1.562   3.430   0.000   0.000   4.992
   17        1.562   3.459   0.000   0.000   5.021
   18        1.562   3.432   0.000   0.000   4.994
   19        1.562   3.459   0.000   0.000   5.021
   20        1.562   3.439   0.000   0.000   5.001
--------------------------------------------------
tot         28.353  66.615  31.791   0.771 127.530

 


 magnetization (x)
 
# of ion       s       p       d       f       tot
--------------------------------------------------
    1        0.001   0.000   0.006   0.003   0.010
    2        0.001   0.000   0.006   0.003   0.010
    3        0.001   0.001   0.006   0.003   0.010
    4        0.000   0.001   0.006   0.003   0.010
    5        0.025   0.034   3.176   0.000   3.234
    6        0.015   0.008   1.401   0.000   1.424
    7        0.006   0.000   1.522   0.000   1.527
    8        0.015   0.008   1.401   0.000   1.424
    9        0.004  -0.029   0.000   0.000  -0.025
   10        0.006  -0.094   0.000   0.000  -0.089
   11        0.006  -0.094   0.000   0.000  -0.089
   12        0.004  -0.029   0.000   0.000  -0.025
   13        0.004  -0.024   0.000   0.000  -0.020
   14        0.005  -0.080   0.000   0.000  -0.075
   15        0.004  -0.024   0.000   0.000  -0.020
   16        0.006  -0.093   0.000   0.000  -0.088
   17        0.004  -0.025   0.000   0.000  -0.021
   18        0.006  -0.091   0.000   0.000  -0.086
   19        0.004  -0.025   0.000   0.000  -0.021
   20        0.005  -0.085   0.000   0.000  -0.079
--------------------------------------------------
tot          0.122  -0.643   7.523   0.011   7.014

 
    CHARGE:  cpu time    0.1311: real time    0.1317
    FORLOC:  cpu time    0.0061: real time    0.0061
    FORNL :  cpu time    0.7920: real time    0.7947
    STRESS:  cpu time    2.3771: real time    2.3860
    FORCOR:  cpu time    0.0561: real time    0.0563
    FORHAR:  cpu time    0.0112: real time    0.0114
    MIXING:  cpu time    0.0035: real time    0.0036
    OFIELD:  cpu time    0.0001: real time    0.0002

  FORCE on cell =-STRESS in cart. coord.  units (eV):
  Direction    XX          YY          ZZ          XY          YZ          ZX
  --------------------------------------------------------------------------------------
  Alpha Z   661.61185   661.61185   661.61185
  Ewald   -3587.25116 -3587.25116 -3620.43700     0.00000    -0.00000    -0.00000
  Hartree   853.68258   853.68256   826.80040     0.00000    -0.00000    -0.00002
  E(xc)    -718.05795  -718.05794  -718.03560    -0.00000     0.00000    -0.00002
  Local    -548.90019  -548.90029  -488.42427    -0.00000     0.00000    -0.00042
  n-local   290.55796   290.51814   290.63607     1.39248     0.21664    -0.06443
  augment   471.53433   471.53539   471.39064    -0.00000     0.00000     0.00126
  Kinetic  2576.59984  2576.80558  2575.77982     5.45603    -0.67801     0.23897
  Fock        0.00000     0.00000     0.00000     0.00000     0.00000     0.00000
  -------------------------------------------------------------------------------------
  Total      -0.13931    -0.13931    -0.67809     0.00000     0.00000    -0.00000
  in kB      -0.96967    -0.96967    -4.72000     0.00000     0.00000    -0.00000
  external pressure =       -2.22 kB  Pullay stress =        0.00 kB


 VOLUME and BASIS-vectors are now :
 -----------------------------------------------------------------------------
  energy-cutoff  :      520.00
  volume of cell :      230.17
      direct lattice vectors                 reciprocal lattice vectors
     3.857928025 -3.857928025  0.000000000     0.129603247 -0.129603247  0.064662248
     3.857928025  3.857928025  0.000000000     0.129603247  0.129603247  0.064662248
    -3.857928025  0.000000000  7.732487071     0.000000000  0.000000000  0.129324497

  length of vectors
     5.455934135  5.455934135  8.641467754     0.194358457  0.194358457  0.129324497


 FORCES acting on ions
    electron-ion (+dipol)            ewald-force                    non-local-force                 convergence-correction
 -----------------------------------------------------------------------------------------------
   -.293E-05 0.266E-05 -.508E+02   -.233E-10 0.701E-11 0.506E+02   0.000E+00 -.130E-17 0.220E+00   -.154E-05 -.483E-07 -.924E-02
   0.293E-05 -.266E-05 0.508E+02   0.233E-10 -.703E-11 -.506E+02   0.000E+00 0.000E+00 -.220E+00   0.154E-05 0.483E-07 0.924E-02
   -.293E-05 -.266E-05 -.508E+02   -.233E-10 -.699E-11 0.506E+02   0.000E+00 0.130E-17 0.220E+00   -.154E-05 0.483E-07 -.924E-02
   0.293E-05 0.266E-05 0.508E+02   0.233E-10 0.699E-11 -.506E+02   0.867E-18 -.867E-18 -.220E+00   0.154E-05 -.483E-07 0.924E-02
   -.786E-12 0.981E-12 0.258E-11   -.852E-13 0.929E-15 -.528E-13   0.000E+00 0.000E+00 0.000E+00   -.244E-13 0.125E-13 0.341E-12
   -.683E-04 0.346E-12 0.136E+02   -.674E-11 0.574E-13 -.131E+02   -.520E-17 -.867E-18 -.485E+00   -.171E-06 -.605E-13 0.356E-02
   0.349E-11 0.133E-11 0.239E-11   -.567E-13 0.680E-15 -.937E-13   -.106E-19 -.678E-20 0.000E+00   -.296E-13 -.649E-14 0.539E-12
   0.683E-04 -.403E-11 -.136E+02   0.654E-11 0.286E-13 0.131E+02   0.520E-17 0.867E-18 0.485E+00   0.171E-06 -.305E-13 -.356E-02
   -.104E-04 -.182E-11 -.552E+02   0.150E-10 -.328E-13 0.509E+02   -.555E-16 0.000E+00 0.431E+01   -.863E-07 0.610E-15 -.199E-01
   0.325E-05 0.681E-13 0.175E+02   -.149E-10 0.184E-13 -.176E+02   0.000E+00 0.000E+00 0.935E-01   -.525E-07 0.142E-13 0.329E-02
   -.325E-05 0.549E-12 -.175E+02   0.149E-10 -.260E-13 0.176E+02   0.000E+00 0.000E+00 -.935E-01   0.525E-07 -.205E-14 -.329E-02
   0.104E-04 0.125E-11 0.552E+02   -.150E-10 0.258E-13 -.509E+02   0.833E-16 0.000E+00 -.431E+01   0.863E-07 0.798E-14 0.199E-01
   0.448E-12 -.371E+02 0.679E-12   -.339E-13 0.324E+02 0.163E-13   0.564E-17 0.464E+01 0.217E-18   0.253E-13 -.173E-01 0.285E-12
   0.486E-12 -.162E-11 0.129E-11   -.136E-14 -.244E-13 -.229E-13   0.271E-19 0.271E-19 -.163E-18   0.112E-13 0.154E-12 -.325E-12
   0.118E-11 0.371E+02 -.694E-11   -.122E-13 -.324E+02 0.257E-13   0.119E-17 -.464E+01 0.651E-18   -.286E-13 0.173E-01 0.287E-12
   0.221E-11 0.986E-12 -.318E-12   -.269E-14 -.484E-13 -.652E-13   0.000E+00 0.136E-19 0.542E-19   0.582E-14 -.745E-13 -.322E-12
   -.371E+02 0.927E-12 0.702E-06   0.324E+02 -.188E-13 0.332E-12   0.464E+01 0.000E+00 0.434E-18   -.173E-01 0.797E-14 -.421E-07
   -.422E-12 -.716E-12 0.121E-11   0.474E-13 0.196E-13 -.888E-14   0.542E-19 0.271E-19 0.163E-18   0.927E-13 -.169E-13 -.273E-12
   0.371E+02 0.536E-12 -.702E-06   -.324E+02 0.126E-14 -.217E-12   -.464E+01 0.000E+00 0.000E+00   0.173E-01 -.329E-13 0.421E-07
   0.147E-11 -.594E-12 0.179E-11   0.130E-12 0.163E-13 0.462E-13   0.542E-19 0.542E-19 0.271E-18   -.113E-12 -.375E-13 -.306E-12
 -----------------------------------------------------------------------------------------------
   0.153E-10 -.296E-11 -.101E-10   0.161E-13 -.876E-14 -.698E-14   -.888E-15 0.949E-19 0.163E-17   0.676E-13 0.379E-14 -.226E-12
 
 
 POSITION                                       TOTAL-FORCE (eV/Angst)
 -----------------------------------------------------------------------------------
      0.00000      0.00000      3.84220        -0.000000     -0.000000     -0.069221
      3.85793      0.00000      0.02405        -0.000000      0.000000      0.069221
      3.85793      0.00000      3.84220        -0.000000      0.000000     -0.069221
     -0.00000      0.00000      0.02405         0.000000     -0.000000      0.069221
      1.92896     -1.92896      5.79937        -0.000000     -0.000000      0.000000
      1.92896      1.92896      1.94046         0.000000     -0.000000      0.012791
      1.92896      1.92896      5.79937        -0.000000     -0.000000      0.000000
      1.92896     -1.92896      1.92578        -0.000000     -0.000000     -0.012791
      1.92896     -1.92896      3.89371        -0.000000     -0.000000     -0.049294
      1.92896      1.92896      7.72303        -0.000000     -0.000000      0.018264
      1.92896      1.92896      3.87570         0.000000     -0.000000     -0.018264
      1.92896     -1.92896      7.70502         0.000000     -0.000000      0.049294
     -1.92896      0.03380      5.79937         0.000000     -0.043055      0.000000
      5.78689      0.00000      1.93312         0.000000      0.000000      0.000000
      1.92896     -0.03380      5.79937        -0.000000      0.043055      0.000000
      1.92896      0.00000      1.93312         0.000000      0.000000      0.000000
      0.03380     -1.92896      5.79937        -0.043055     -0.000000      0.000000
      3.85793      1.92896      1.93312        -0.000000      0.000000      0.000000
     -0.03380      1.92896      5.79937         0.043055     -0.000000      0.000000
      3.85793     -1.92896      1.93312         0.000000     -0.000000      0.000000
 -----------------------------------------------------------------------------------
    total drift:                                0.000000     -0.000000     -0.000000


--------------------------------------------------------------------------------------------------------



  FREE ENERGIE OF THE ION-ELECTRON SYSTEM (eV)
  ---------------------------------------------------
  free  energy   TOTEN  =      -140.30990748 eV

  energy  without entropy=     -140.30990748  energy(sigma->0) =     -140.30990748
 


--------------------------------------------------------------------------------------------------------


    POTLOK:  cpu time    0.0616: real time    0.0617


--------------------------------------------------------------------------------------------------------


     LOOP+:  cpu time   68.8553: real time   69.1438
    4ORBIT:  cpu time    0.0000: real time    0.0000
 


 total charge     
 
# of ion       s       p       d       f       tot
--------------------------------------------------
    1        2.000   5.701   0.494   0.193   8.388
    2        2.000   5.701   0.494   0.193   8.388
    3        2.000   5.701   0.496   0.192   8.389
    4        2.000   5.701   0.496   0.192   8.389
    5        0.362   0.582   4.866   0.000   5.811
    6        0.423   0.633   8.313   0.000   9.369
    7        0.403   0.600   8.317   0.000   9.321
    8        0.423   0.633   8.313   0.000   9.369
    9        1.562   3.458   0.000   0.000   5.021
   10        1.562   3.433   0.000   0.000   4.994
   11        1.562   3.433   0.000   0.000   4.995
   12        1.562   3.458   0.000   0.000   5.021
   13        1.562   3.459   0.000   0.000   5.021
   14        1.562   3.443   0.000   0.000   5.005
   15        1.562   3.459   0.000   0.000   5.021
   16        1.562   3.430   0.000   0.000   4.992
   17        1.562   3.459   0.000   0.000   5.021
   18        1.562   3.432   0.000   0.000   4.994
   19        1.562   3.459   0.000   0.000   5.021
   20        1.562   3.439   0.000   0.000   5.001
--------------------------------------------------
tot         28.353  66.615  31.791   0.771 127.530

 


 magnetization (x)
 
# of ion       s       p       d       f       tot
--------------------------------------------------
    1        0.001   0.000   0.006   0.003   0.010
    2        0.001   0.000   0.006   0.003   0.010
    3        0.001   0.001   0.006   0.003   0.010
    4        0.000   0.001   0.006   0.003   0.010
    5        0.025   0.034   3.176   0.000   3.234
    6        0.015   0.008   1.401   0.000   1.424
    7        0.006   0.000   1.522   0.000   1.527
    8        0.015   0.008   1.401   0.000   1.424
    9        0.004  -0.029   0.000   0.000  -0.025
   10        0.006  -0.094   0.000   0.000  -0.089
   11        0.006  -0.094   0.000   0.000  -0.089
   12        0.004  -0.029   0.000   0.000  -0.025
   13        0.004  -0.024   0.000   0.000  -0.020
   14        0.005  -0.080   0.000   0.000  -0.075
   15        0.004  -0.024   0.000   0.000  -0.020
   16        0.006  -0.093   0.000   0.000  -0.088
   17        0.004  -0.025   0.000   0.000  -0.021
   18        0.006  -0.091   0.000   0.000  -0.086
   19        0.004  -0.025   0.000   0.000  -0.021
   20        0.005  -0.085   0.000   0.000  -0.079
--------------------------------------------------
tot          0.122  -0.643   7.523   0.011   7.014

 
 BZINTS: Fermi energy:  7.530124;153.000000 electrons
         Band energy:-180.550492;  BLOECHL correction: -0.021151

 total amount of memory used by VASP MPI-rank0    61730. kBytes
=======================================================================

   base      :      30000. kBytes
   nonlr-proj:       5207. kBytes
   fftplans  :       2158. kBytes
   grid      :       6310. kBytes
   one-center:        196. kBytes
   wavefun   :      17859. kBytes
 
  
  
 General timing and accounting informations for this job:
 ========================================================
  
                  Total CPU time used (sec):       75.154
                            User time (sec):       73.013
                          System time (sec):        2.141
                         Elapsed time (sec):       75.599
  
                   Maximum memory used (kb):       99168.
                   Average memory used (kb):           0.
  
                          Minor page faults:        39362
                          Major page faults:            0
                 Voluntary context switches:         1108
