       N       E                     dE             d eps       ncg     rms          rms(c)
DAV:   1     0.227896262779E+04    0.22790E+04   -0.56080E+04  4616   0.251E+03
DAV:   2     0.720970358993E+03   -0.15580E+04   -0.14162E+04  4912   0.609E+02
DAV:   3     0.108647842893E+03   -0.61232E+03   -0.55803E+03  4864   0.309E+02
DAV:   4    -0.121218551246E+03   -0.22987E+03   -0.21940E+03  7088   0.160E+02
DAV:   5    -0.162600772818E+03   -0.41382E+02   -0.40158E+02  7864   0.805E+01    0.666E+01
RMM:   6    -0.145351755350E+03    0.17249E+02   -0.48506E+02  7490   0.106E+02    0.887E+01
RMM:   7    -0.141364534885E+03    0.39872E+01   -0.79209E+01  7229   0.341E+01    0.389E+01
RMM:   8    -0.138205177356E+03    0.31594E+01   -0.26453E+01  6397   0.326E+01    0.183E+01
RMM:   9    -0.139890680982E+03   -0.16855E+01   -0.14757E+01  7063   0.155E+01    0.101E+01
RMM:  10    -0.140131940379E+03   -0.24126E+00   -0.25175E+00  7643   0.540E+00    0.661E+00
RMM:  11    -0.140298261140E+03   -0.16632E+00   -0.18688E+00  7222   0.548E+00    0.346E+00
RMM:  12    -0.140337226117E+03   -0.38965E-01   -0.45239E-01  7175   0.310E+00    0.233E+00
RMM:  13    -0.140355983944E+03   -0.18758E-01   -0.21524E-01  7077   0.181E+00    0.133E+00
RMM:  14    -0.140360037203E+03   -0.40533E-02   -0.93976E-02  6925   0.131E+00    0.654E-01
RMM:  15    -0.140365369922E+03   -0.53327E-02   -0.55234E-02  6405   0.631E-01    0.412E-01
RMM:  16    -0.140366609994E+03   -0.12401E-02   -0.22331E-02  5124   0.599E-01    0.288E-01
RMM:  17    -0.140367958174E+03   -0.13482E-02   -0.18120E-02  4980   0.444E-01    0.103E-01
RMM:  18    -0.140368984878E+03   -0.10267E-02   -0.10711E-02  4501   0.445E-01    0.595E-02
RMM:  19    -0.140369652435E+03   -0.66756E-03   -0.74782E-03  4227   0.365E-01
   1 F= -.14036965E+03 E0= -.14036965E+03  d E =0.000000E+00  mag=     7.0003
