       N       E                     dE             d eps       ncg     rms          rms(c)
DAV:   1     0.225046307364E+04    0.22505E+04   -0.53226E+04  4528   0.241E+03
DAV:   2     0.709393057771E+03   -0.15411E+04   -0.13928E+04  4832   0.605E+02
DAV:   3     0.100867633952E+03   -0.60853E+03   -0.55829E+03  5248   0.316E+02
DAV:   4    -0.133162757330E+03   -0.23403E+03   -0.22315E+03  6960   0.164E+02
DAV:   5    -0.174897783741E+03   -0.41735E+02   -0.40023E+02  7608   0.768E+01    0.556E+01
RMM:   6    -0.156600037338E+03    0.18298E+02   -0.47331E+02  7081   0.968E+01    0.893E+01
RMM:   7    -0.155249916181E+03    0.13501E+01   -0.76088E+01  7240   0.334E+01    0.388E+01
RMM:   8    -0.150762326082E+03    0.44876E+01   -0.40923E+01  5521   0.379E+01    0.200E+01
RMM:   9    -0.153254983495E+03   -0.24927E+01   -0.30150E+01  6764   0.188E+01    0.148E+01
RMM:  10    -0.153475588375E+03   -0.22060E+00   -0.57121E+00  7222   0.847E+00    0.795E+00
RMM:  11    -0.153019970756E+03    0.45562E+00   -0.28967E+00  6906   0.756E+00    0.469E+00
RMM:  12    -0.153078023129E+03   -0.58052E-01   -0.14142E+00  7536   0.317E+00    0.335E+00
RMM:  13    -0.153084710616E+03   -0.66875E-02   -0.35592E-01  7159   0.186E+00    0.280E+00
RMM:  14    -0.153093402390E+03   -0.86918E-02   -0.17596E-01  7080   0.137E+00    0.136E+00
RMM:  15    -0.153092858420E+03    0.54397E-03   -0.50840E-02  6165   0.857E-01    0.101E+00
RMM:  16    -0.153094103113E+03   -0.12447E-02   -0.33910E-02  5929   0.530E-01    0.658E-01
RMM:  17    -0.153095045708E+03   -0.94259E-03   -0.24120E-02  5938   0.563E-01    0.208E-01
RMM:  18    -0.153095674956E+03   -0.62925E-03   -0.94175E-03  4444   0.399E-01
   1 F= -.15309567E+03 E0= -.15309567E+03  d E =0.000000E+00  mag=    13.0004
