       N       E                     dE             d eps       ncg     rms          rms(c)
DAV:   1     0.226810946160E+04    0.22681E+04   -0.56339E+04  4992   0.251E+03
DAV:   2     0.719111728505E+03   -0.15490E+04   -0.14081E+04  5296   0.605E+02
DAV:   3     0.116540700002E+03   -0.60257E+03   -0.54708E+03  5312   0.309E+02
DAV:   4    -0.119864526304E+03   -0.23641E+03   -0.22541E+03  7738   0.157E+02
DAV:   5    -0.162366916526E+03   -0.42502E+02   -0.41057E+02  8612   0.805E+01    0.665E+01
RMM:   6    -0.145754061767E+03    0.16613E+02   -0.50377E+02  8103   0.109E+02    0.905E+01
RMM:   7    -0.141364744456E+03    0.43893E+01   -0.86300E+01  7874   0.355E+01    0.387E+01
RMM:   8    -0.138164270127E+03    0.32005E+01   -0.27149E+01  7057   0.325E+01    0.175E+01
RMM:   9    -0.139837832083E+03   -0.16736E+01   -0.14564E+01  7712   0.154E+01    0.956E+00
RMM:  10    -0.140105502017E+03   -0.26767E+00   -0.26280E+00  8245   0.544E+00    0.617E+00
RMM:  11    -0.140264400698E+03   -0.15890E+00   -0.16192E+00  7936   0.501E+00    0.345E+00
RMM:  12    -0.140308546154E+03   -0.44145E-01   -0.41652E-01  8088   0.245E+00    0.227E+00
RMM:  13    -0.140334303203E+03   -0.25757E-01   -0.17195E-01  7648   0.151E+00    0.948E-01
RMM:  14    -0.140340343246E+03   -0.60400E-02   -0.72202E-02  7173   0.103E+00    0.792E-01
RMM:  15    -0.140344323887E+03   -0.39806E-02   -0.38374E-02  6689   0.741E-01    0.386E-01
RMM:  16    -0.140346137024E+03   -0.18131E-02   -0.22287E-02  5639   0.499E-01    0.218E-01
RMM:  17    -0.140347407532E+03   -0.12705E-02   -0.13471E-02  5020   0.444E-01    0.110E-01
RMM:  18    -0.140348464727E+03   -0.10572E-02   -0.10468E-02  4677   0.403E-01    0.738E-02
RMM:  19    -0.140349036130E+03   -0.57140E-03   -0.62765E-03  4535   0.376E-01
   1 F= -.14034904E+03 E0= -.14034904E+03  d E =0.000000E+00  mag=     6.9999
