 vasp.5.4.4.18Apr17-6-g9f103f2a35 (build Oct 03 2018 13:58:34) complex          
  
 executed on             LinuxIFC date 2019.06.04  01:54:21
 running on   40 total cores
 distrk:  each k-point on   20 cores,    2 groups
 distr:  one band on NCORES_PER_BAND=  10 cores,    2 groups


--------------------------------------------------------------------------------------------------------


 INCAR:
 POTCAR:    PAW_PBE La 06Sep2000                  
 POTCAR:    PAW_PBE Mn 06Sep2000                  
 POTCAR:    PAW_PBE Ni 02Aug2007                  
 POTCAR:    PAW_PBE O 08Apr2002                   

 ----------------------------------------------------------------------------- 
|                                                                             |
|           W    W    AA    RRRRR   N    N  II  N    N   GGGG   !!!           |
|           W    W   A  A   R    R  NN   N  II  NN   N  G    G  !!!           |
|           W    W  A    A  R    R  N N  N  II  N N  N  G       !!!           |
|           W WW W  AAAAAA  RRRRR   N  N N  II  N  N N  G  GGG   !            |
|           WW  WW  A    A  R   R   N   NN  II  N   NN  G    G                |
|           W    W  A    A  R    R  N    N  II  N    N   GGGG   !!!           |
|                                                                             |
|      You have enabled k-point parallelism (KPAR>1).                         |
|      This developmental code was originally  written by Paul Kent at ORNL,  |
|      and carefully double checked in Vienna.                                |
|      GW as well as linear response parallelism added by Martijn Marsman     |
|      and Georg Kresse.                                                      |
|      Carefully verify results versus KPAR=1.                                |
|      Report problems to Paul Kent and Vienna.                               |
|                                                                             |
 ----------------------------------------------------------------------------- 

 POTCAR:    PAW_PBE La 06Sep2000                  
   VRHFIN =La : [core=Kr4d]                                                     
   LEXCH  = PE                                                                  
   EATOM  =   865.9763 eV,   63.6475 Ry                                         
                                                                                
   TITEL  = PAW_PBE La 06Sep2000                                                
   LULTRA =        F    use ultrasoft PP ?                                      
   IUNSCR =        1    unscreen: 0-lin 1-nonlin 2-no                           
   RPACOR =    2.300    partial core radius                                     
   POMASS =  138.900; ZVAL   =   11.000    mass and valenz                      
   RCORE  =    2.800    outmost cutoff radius                                   
   RWIGS  =    2.900; RWIGS  =    1.535    wigner-seitz radius (au A)           
   ENMAX  =  219.292; ENMIN  =  164.469 eV                                      
   RCLOC  =    1.601    cutoff for local pot                                    
   LCOR   =        T    correct aug charges                                     
   LPAW   =        T    paw PP                                                  
   EAUG   =  583.575                                                            
   DEXC   =    0.000                                                            
   RMAX   =    2.853    core radius for proj-oper                               
   RAUG   =    1.300    factor for augmentation sphere                          
   RDEP   =    2.802    radius for radial grids                                 
   RDEPT  =    2.156    core radius for aug-charge                              
                                                                                
   Atomic configuration                                                         
   14 entries                                                                   
     n  l   j            E        occ.                                          
     1  0  0.50    -38741.0879   2.0000                                         
     2  0  0.50     -6166.6801   2.0000                                         
     2  1  1.50     -5526.1593   6.0000                                         
     3  0  0.50     -1319.0200   2.0000                                         
     3  1  1.50     -1114.5963   6.0000                                         
     3  2  2.50      -821.1793  10.0000                                         
     4  0  0.50      -266.3851   2.0000                                         
     4  1  1.50      -199.9276   6.0000                                         
     4  2  2.50      -103.8239  10.0000                                         
     5  0  0.50       -38.9172   2.0000                                         
     6  0  0.50        -3.6792   2.0000                                         
     5  1  1.50       -22.3948   6.0000                                         
     5  2  2.50        -3.0911   0.9999                                         
     4  3  2.50        -4.3603   0.0001                                         
   Description                                                                  
     l       E           TYP  RCUT    TYP  RCUT                                 
     0    -38.9171645     23  2.800                                             
     0     -3.6792381     23  2.800                                             
     1    -22.3948300     23  2.500                                             
     1     27.2116520     23  2.500                                             
     2     -3.0910934     23  2.500                                             
     2      1.0119135     23  2.500                                             
     3     -4.3602911     23  2.800                                             
     3     -5.7208737     23  2.800                                             
  local pseudopotential read in
  partial core-charges read in
  partial kinetic energy density read in
  atomic valenz-charges read in
  non local Contribution for L=           0  read in
    real space projection operators read in
  non local Contribution for L=           0  read in
    real space projection operators read in
  non local Contribution for L=           1  read in
    real space projection operators read in
  non local Contribution for L=           1  read in
    real space projection operators read in
  non local Contribution for L=           2  read in
    real space projection operators read in
  non local Contribution for L=           2  read in
    real space projection operators read in
  non local Contribution for L=           3  read in
    real space projection operators read in
  non local Contribution for L=           3  read in
    real space projection operators read in
    PAW grid and wavefunctions read in
 
   number of l-projection  operators is LMAX  =           8
   number of lm-projection operators is LMMAX =          32
 
 POTCAR:    PAW_PBE Mn 06Sep2000                  
   VRHFIN =Mn: d6 s1                                                            
   LEXCH  = PE                                                                  
   EATOM  =   416.7541 eV,   30.6306 Ry                                         
                                                                                
   TITEL  = PAW_PBE Mn 06Sep2000                                                
   LULTRA =        F    use ultrasoft PP ?                                      
   IUNSCR =        1    unscreen: 0-lin 1-nonlin 2-no                           
   RPACOR =    2.000    partial core radius                                     
   POMASS =   54.938; ZVAL   =    7.000    mass and valenz                      
   RCORE  =    2.300    outmost cutoff radius                                   
   RWIGS  =    2.500; RWIGS  =    1.323    wigner-seitz radius (au A)           
   ENMAX  =  269.864; ENMIN  =  202.398 eV                                      
   RCLOC  =    1.725    cutoff for local pot                                    
   LCOR   =        T    correct aug charges                                     
   LPAW   =        T    paw PP                                                  
   EAUG   =  500.711                                                            
   DEXC   =    0.000                                                            
   RMAX   =    2.343    core radius for proj-oper                               
   RAUG   =    1.300    factor for augmentation sphere                          
   RDEP   =    2.338    radius for radial grids                                 
   RDEPT  =    1.911    core radius for aug-charge                              
                                                                                
   Atomic configuration                                                         
    9 entries                                                                   
     n  l   j            E        occ.                                          
     1  0  0.50     -6424.8288   2.0000                                         
     2  0  0.50      -739.1154   2.0000                                         
     2  1  1.50      -625.3949   6.0000                                         
     3  0  0.50       -81.6100   2.0000                                         
     3  1  1.50       -50.4667   6.0000                                         
     3  2  2.50        -3.3745   6.0000                                         
     4  0  0.50        -4.1331   1.0000                                         
     4  1  0.50        -4.0817   0.0000                                         
     4  3  2.50        -1.3606   0.0000                                         
   Description                                                                  
     l       E           TYP  RCUT    TYP  RCUT                                 
     2     -3.3744664     23  2.300                                             
     2     -4.7350490     23  2.300                                             
     0     -4.1331408     23  2.300                                             
     0      7.6656614     23  2.300                                             
     1     -2.7211652     23  2.300                                             
     1     20.4087390     23  2.300                                             
  local pseudopotential read in
  partial core-charges read in
  partial kinetic energy density read in
  atomic valenz-charges read in
  non local Contribution for L=           2  read in
    real space projection operators read in
  non local Contribution for L=           2  read in
    real space projection operators read in
  non local Contribution for L=           0  read in
    real space projection operators read in
  non local Contribution for L=           0  read in
    real space projection operators read in
  non local Contribution for L=           1  read in
    real space projection operators read in
  non local Contribution for L=           1  read in
    real space projection operators read in
    PAW grid and wavefunctions read in
 
   number of l-projection  operators is LMAX  =           6
   number of lm-projection operators is LMMAX =          18
 
 POTCAR:    PAW_PBE Ni 02Aug2007                  
   VRHFIN =Ni:                                                                  
   LEXCH  = PE                                                                  
   EATOM  =  1077.6739 eV,   79.2068 Ry                                         
                                                                                
   TITEL  = PAW_PBE Ni 02Aug2007                                                
   LULTRA =        F    use ultrasoft PP ?                                      
   IUNSCR =        1    unscreen: 0-lin 1-nonlin 2-no                           
   RPACOR =    2.000    partial core radius                                     
   POMASS =   58.690; ZVAL   =   10.000    mass and valenz                      
   RCORE  =    2.300    outmost cutoff radius                                   
   RWIGS  =    2.430; RWIGS  =    1.286    wigner-seitz radius (au A)           
   ENMAX  =  269.532; ENMIN  =  202.149 eV                                      
   RCLOC  =    1.201    cutoff for local pot                                    
   LCOR   =        T    correct aug charges                                     
   LPAW   =        T    paw PP                                                  
   EAUG   =  544.565                                                            
   DEXC   =    0.000                                                            
   RMAX   =    2.357    core radius for proj-oper                               
   RAUG   =    1.300    factor for augmentation sphere                          
   RDEP   =    2.390    radius for radial grids                                 
   RDEPT  =    1.838    core radius for aug-charge                              
                                                                                
   Atomic configuration                                                         
    9 entries                                                                   
     n  l   j            E        occ.                                          
     1  0  0.50     -8206.4253   2.0000                                         
     2  0  0.50      -976.1748   2.0000                                         
     2  1  1.50      -839.0571   6.0000                                         
     3  0  0.50      -105.9991   2.0000                                         
     3  1  1.50       -66.4603   6.0000                                         
     3  2  2.50        -4.6458   9.0000                                         
     4  0  0.50        -4.4926   1.0000                                         
     4  1  1.50        -4.0817   0.0000                                         
     4  3  2.50        -1.3606   0.0000                                         
   Description                                                                  
     l       E           TYP  RCUT    TYP  RCUT                                 
     2     -4.6457903     23  2.300                                             
     2     -6.0063729     23  2.300                                             
     0     -4.4925590     23  2.300                                             
     0      5.0102601     23  2.300                                             
     1     -2.7211652     23  2.300                                             
     1     16.5183231     23  2.300                                             
  local pseudopotential read in
  partial core-charges read in
  partial kinetic energy density read in
  atomic valenz-charges read in
  non local Contribution for L=           2  read in
    real space projection operators read in
  non local Contribution for L=           2  read in
    real space projection operators read in
  non local Contribution for L=           0  read in
    real space projection operators read in
  non local Contribution for L=           0  read in
    real space projection operators read in
  non local Contribution for L=           1  read in
    real space projection operators read in
  non local Contribution for L=           1  read in
    real space projection operators read in
    PAW grid and wavefunctions read in
 
   number of l-projection  operators is LMAX  =           6
   number of lm-projection operators is LMMAX =          18
 
 POTCAR:    PAW_PBE O 08Apr2002                   
   VRHFIN =O: s2p4                                                              
   LEXCH  = PE                                                                  
   EATOM  =   432.3788 eV,   31.7789 Ry                                         
                                                                                
   TITEL  = PAW_PBE O 08Apr2002                                                 
   LULTRA =        F    use ultrasoft PP ?                                      
   IUNSCR =        1    unscreen: 0-lin 1-nonlin 2-no                           
   RPACOR =    1.200    partial core radius                                     
   POMASS =   16.000; ZVAL   =    6.000    mass and valenz                      
   RCORE  =    1.520    outmost cutoff radius                                   
   RWIGS  =    1.550; RWIGS  =    0.820    wigner-seitz radius (au A)           
   ENMAX  =  400.000; ENMIN  =  300.000 eV                                      
   ICORE  =        2    local potential                                         
   LCOR   =        T    correct aug charges                                     
   LPAW   =        T    paw PP                                                  
   EAUG   =  605.392                                                            
   DEXC   =    0.000                                                            
   RMAX   =    1.553    core radius for proj-oper                               
   RAUG   =    1.300    factor for augmentation sphere                          
   RDEP   =    1.550    radius for radial grids                                 
   RDEPT  =    1.329    core radius for aug-charge                              
                                                                                
   Atomic configuration                                                         
    4 entries                                                                   
     n  l   j            E        occ.                                          
     1  0  0.50      -514.6923   2.0000                                         
     2  0  0.50       -23.9615   2.0000                                         
     2  1  0.50        -9.0305   4.0000                                         
     3  2  1.50        -9.5241   0.0000                                         
   Description                                                                  
     l       E           TYP  RCUT    TYP  RCUT                                 
     0    -23.9615318     23  1.200                                             
     0     -9.5240782     23  1.200                                             
     1     -9.0304911     23  1.520                                             
     1      8.1634956     23  1.520                                             
     2     -9.5240782      7  1.500                                             
  local pseudopotential read in
  partial core-charges read in
  partial kinetic energy density read in
  kinetic energy density of atom read in
  atomic valenz-charges read in
  non local Contribution for L=           0  read in
    real space projection operators read in
  non local Contribution for L=           0  read in
    real space projection operators read in
  non local Contribution for L=           1  read in
    real space projection operators read in
  non local Contribution for L=           1  read in
    real space projection operators read in
    PAW grid and wavefunctions read in
 
   number of l-projection  operators is LMAX  =           4
   number of lm-projection operators is LMMAX =           8
 
 Optimization of the real space projectors (new method)

 maximal supplied QI-value         = 13.42
 optimisation between [QCUT,QGAM] = [ 11.67, 23.35] = [ 38.16,152.62] Ry 
 Optimized for a Real-space Cutoff    1.63 Angstroem

   l    n(q)    QCUT    max X(q) W(low)/X(q) W(high)/X(q)  e(spline) 
   0     11    11.673    13.882    0.27E-04    0.79E-05    0.11E-06
   0     11    11.673    12.184    0.39E-04    0.13E-04    0.19E-06
   1     11    11.673     4.523    0.73E-05    0.76E-05    0.12E-06
   1     11    11.673     4.424    0.87E-05    0.13E-04    0.19E-06
   2     10    11.673    52.481    0.65E-04    0.36E-04    0.18E-06
   2     10    11.673    38.501    0.61E-04    0.33E-04    0.17E-06
   3     10    11.673    65.631    0.17E-03    0.14E-03    0.37E-06
   3     10    11.673    56.854    0.17E-03    0.14E-03    0.37E-06
 Optimization of the real space projectors (new method)

 maximal supplied QI-value         = 16.25
 optimisation between [QCUT,QGAM] = [ 11.54, 23.24] = [ 37.28,151.24] Ry 
 Optimized for a Real-space Cutoff    1.53 Angstroem

   l    n(q)    QCUT    max X(q) W(low)/X(q) W(high)/X(q)  e(spline) 
   2     10    11.539   110.144    0.12E-03    0.13E-03    0.25E-06
   2     10    11.539   103.200    0.12E-03    0.13E-03    0.25E-06
   0     11    11.539    68.437    0.46E-04    0.21E-04    0.32E-06
   0     11    11.539    33.971    0.37E-04    0.19E-04    0.29E-06
   1     10    11.539    17.065    0.51E-04    0.22E-04    0.13E-06
   1     10    11.539    12.540    0.41E-04    0.18E-04    0.11E-06
 Optimization of the real space projectors (new method)

 maximal supplied QI-value         = 16.25
 optimisation between [QCUT,QGAM] = [ 11.54, 23.24] = [ 37.28,151.24] Ry 
 Optimized for a Real-space Cutoff    1.45 Angstroem

   l    n(q)    QCUT    max X(q) W(low)/X(q) W(high)/X(q)  e(spline) 
   2      9    11.539    60.317    0.19E-03    0.47E-04    0.16E-06
   2      9    11.539    55.921    0.19E-03    0.48E-04    0.16E-06
   0     10    11.539    51.690    0.80E-04    0.50E-04    0.24E-06
   0     10    11.539    30.015    0.73E-04    0.45E-04    0.22E-06
   1     10    11.539    18.849    0.87E-04    0.16E-03    0.71E-07
   1     10    11.539    14.624    0.73E-04    0.13E-03    0.64E-07
 Optimization of the real space projectors (new method)

 maximal supplied QI-value         = 24.76
 optimisation between [QCUT,QGAM] = [ 11.64, 23.27] = [ 37.91,151.63] Ry 
 Optimized for a Real-space Cutoff    1.14 Angstroem

   l    n(q)    QCUT    max X(q) W(low)/X(q) W(high)/X(q)  e(spline) 
   0      8    11.635    20.381    0.10E-03    0.33E-03    0.24E-06
   0      8    11.635    15.268    0.11E-03    0.35E-03    0.26E-06
   1      7    11.635     5.964    0.24E-03    0.31E-03    0.30E-06
   1      7    11.635     5.382    0.22E-03    0.25E-03    0.26E-06
  PAW_PBE La 06Sep2000                  :
 energy of atom  1       EATOM= -865.9763
 kinetic energy error for atom=    0.0009 (will be added to EATOM!!)
  PAW_PBE Mn 06Sep2000                  :
 energy of atom  2       EATOM= -416.7541
 kinetic energy error for atom=    0.0024 (will be added to EATOM!!)
  PAW_PBE Ni 02Aug2007                  :
 energy of atom  3       EATOM=-1077.6739
 kinetic energy error for atom=    0.0030 (will be added to EATOM!!)
  PAW_PBE O 08Apr2002                   :
 energy of atom  4       EATOM= -432.3788
 kinetic energy error for atom=    0.0208 (will be added to EATOM!!)
 
 
 POSCAR: SCEL4_2_1_2_0_0_1/1                     
  positions in direct lattice
  velocities in cartesian coordinates
 exchange correlation table for  LEXCH =        8
   RHO(1)=    0.500       N(1)  =     2000
   RHO(2)=  100.500       N(2)  =     4000
 


--------------------------------------------------------------------------------------------------------


 ion  position               nearest neighbor table
   1  0.500  0.500  0.997-  15 2.71  16 2.71  19 2.71  20 2.71  12 2.73  12 2.73  11 2.73  11 2.73
                            13 2.75  14 2.75  17 2.75  18 2.75   6 3.33   6 3.33   7 3.33   7 3.33
   2  0.000  0.000  0.503-  15 2.71  16 2.71  19 2.71  20 2.71  10 2.73  10 2.73   9 2.73   9 2.73
                            13 2.75  14 2.75  17 2.75  18 2.75   7 3.33   6 3.33   6 3.33   7 3.33
   3  0.500  0.500  0.503-  15 2.71  16 2.71  19 2.71  20 2.71  10 2.73  10 2.73   9 2.73   9 2.73
                            13 2.75  14 2.75  17 2.75  18 2.75   6 3.33   6 3.33   7 3.33   7 3.33
   4  0.000  0.000  0.997-  15 2.71  16 2.71  19 2.71  20 2.71  12 2.73  12 2.73  11 2.73  11 2.73
                            13 2.75  14 2.75  17 2.75  18 2.75   7 3.33   6 3.33   6 3.33   7 3.33
   5  0.000  0.500  0.250-  13 1.90  14 1.90  17 1.90  18 1.90   9 1.90  11 1.90   3 3.35   4 3.35
                             1 3.35   2 3.35   2 3.35   4 3.35   1 3.35   3 3.35
   6  0.500  0.000  0.750-  10 1.91  12 1.91  15 1.92  16 1.92  19 1.92  20 1.92   3 3.33   4 3.33
                             1 3.33   2 3.33   1 3.33   3 3.33   2 3.33   4 3.33
   7  0.000  0.500  0.750-  15 1.94  16 1.94  19 1.94  20 1.94   9 1.96  11 1.96   3 3.33   4 3.33
                             1 3.33   2 3.33   2 3.33   4 3.33   1 3.33   3 3.33
   8  0.500  0.000  0.250-  10 1.96  12 1.96  13 1.96  14 1.96  17 1.96  18 1.96   3 3.35   4 3.35
                             1 3.35   2 3.35   1 3.35   3 3.35   2 3.35   4 3.35
   9  0.000  0.500  0.496-   5 1.90   7 1.96   2 2.73   3 2.73   2 2.73   3 2.73
  10  0.500  0.000  0.503-   6 1.91   8 1.96   2 2.73   3 2.73   3 2.73   2 2.73
  11  0.000  0.500  0.004-   5 1.90   7 1.96   1 2.73   4 2.73   4 2.73   1 2.73
  12  0.500  0.000  0.997-   6 1.91   8 1.96   1 2.73   4 2.73   1 2.73   4 2.73
  13  0.754  0.746  0.250-   5 1.90   8 1.96   3 2.75   4 2.75   1 2.75   2 2.75
  14  0.246  0.254  0.250-   5 1.90   8 1.96   3 2.75   4 2.75   1 2.75   2 2.75
  15  0.749  0.751  0.750-   6 1.92   7 1.94   3 2.71   4 2.71   1 2.71   2 2.71
  16  0.251  0.249  0.750-   6 1.92   7 1.94   3 2.71   4 2.71   1 2.71   2 2.71
  17  0.754  0.254  0.250-   5 1.90   8 1.96   3 2.75   4 2.75   1 2.75   2 2.75
  18  0.246  0.746  0.250-   5 1.90   8 1.96   3 2.75   4 2.75   1 2.75   2 2.75
  19  0.749  0.249  0.750-   6 1.92   7 1.94   3 2.71   4 2.71   1 2.71   2 2.71
  20  0.251  0.751  0.750-   6 1.92   7 1.94   3 2.71   4 2.71   1 2.71   2 2.71
 
  LATTYP: Found a simple tetragonal cell.
 ALAT       =     5.4545077971
 C/A-ratio  =     1.4162321903
  
  Lattice vectors:
  
 A1 = (   3.8569194514,   3.8569194514,   0.0000000000)
 A2 = (   3.8569194514,  -3.8569194514,   0.0000000000)
 A3 = (   0.0000000000,   0.0000000000,  -7.7248495247)


Analysis of symmetry for initial positions (statically):
=====================================================================
 Subroutine PRICEL returns:
 Original cell was already a primitive cell.
 

 Routine SETGRP: Setting up the symmetry group for a 
 simple tetragonal supercell.


 Subroutine GETGRP returns: Found 16 space group operations
 (whereof  4 operations were pure point group operations)
 out of a pool of 16 trial point group operations.


The static configuration has the point symmetry C_2v.
 The point group associated with its full space group is D_4h.


Analysis of symmetry for dynamics (positions and initial velocities):
=====================================================================
 Subroutine PRICEL returns:
 Original cell was already a primitive cell.
 

 Routine SETGRP: Setting up the symmetry group for a 
 simple tetragonal supercell.


 Subroutine GETGRP returns: Found 16 space group operations
 (whereof  4 operations were pure point group operations)
 out of a pool of 16 trial point group operations.


The dynamic configuration has the point symmetry C_2v.
 The point group associated with its full space group is D_4h.


Analysis of structural, dynamic, and magnetic symmetry:
=====================================================================
 Subroutine PRICEL returns:
 Original cell was already a primitive cell.
 

 Routine SETGRP: Setting up the symmetry group for a 
 simple tetragonal supercell.


 Subroutine GETGRP returns: Found 16 space group operations
 (whereof  4 operations were pure point group operations)
 out of a pool of 16 trial point group operations.


The magnetic configuration has the point symmetry C_2v.
 The point group associated with its full space group is D_4h.


 Subroutine INISYM returns: Found 16 space group operations
 (whereof  4 operations are pure point group operations),
 and found     1 'primitive' translations

 
 
 KPOINTS: Automatic mesh                          

Automatic generation of k-mesh.
 generate k-points for:    4    4    3
Space group operators:
 irot       det(A)        alpha          n_x          n_y          n_z        tau_x        tau_y        tau_z
    1     1.000000     0.000001     1.000000     0.000000     0.000000     0.000000     0.000000     0.000000
    2     1.000000   180.000000     0.000000     0.000000     1.000000     0.000000     0.000000     0.000000
    3    -1.000000   179.999999     0.707107    -0.707107     0.000000     0.000000     0.000000     0.000000
    4    -1.000000   179.999999     0.707107     0.707107     0.000000     0.000000     0.000000     0.000000
    5    -1.000000     0.000001     1.000000     0.000000     0.000000     0.000000     0.000000     0.500000
    6     1.000000    90.000000     0.000000     0.000000     1.000000     0.500000     0.500000     0.000000
    7    -1.000000    90.000000     0.000000     0.000000     1.000000     0.500000     0.500000     0.500000
    8    -1.000000   180.000000     0.000000     0.000000     1.000000     0.000000     0.000000     0.500000
    9     1.000000    90.000000     0.000000     0.000000    -1.000000     0.500000     0.500000     0.000000
   10    -1.000000    90.000000     0.000000     0.000000    -1.000000     0.500000     0.500000     0.500000
   11     1.000000   179.999999     0.707107    -0.707107     0.000000     0.000000     0.000000     0.500000
   12     1.000000   179.999999     1.000000     0.000000     0.000000     0.500000     0.500000     0.500000
   13    -1.000000   179.999999     1.000000     0.000000     0.000000     0.500000     0.500000     0.000000
   14     1.000000   179.999999     0.707107     0.707107     0.000000     0.000000     0.000000     0.500000
   15     1.000000   179.999999     0.000000     1.000000     0.000000     0.500000     0.500000     0.500000
   16    -1.000000   179.999999     0.000000     1.000000     0.000000     0.500000     0.500000     0.000000
 
 Subroutine IBZKPT returns following result:
 ===========================================
 
 Found     12 irreducible k-points:
 
 Following reciprocal coordinates:
            Coordinates               Weight
  0.000000  0.000000  0.000000      1.000000
  0.250000  0.000000  0.000000      4.000000
  0.500000  0.000000  0.000000      2.000000
  0.250000  0.250000  0.000000      4.000000
  0.500000  0.250000  0.000000      4.000000
  0.500000  0.500000  0.000000      1.000000
  0.000000  0.000000  0.333333      2.000000
  0.250000  0.000000  0.333333      8.000000
  0.500000  0.000000  0.333333      4.000000
  0.250000  0.250000  0.333333      8.000000
  0.500000  0.250000  0.333333      8.000000
  0.500000  0.500000  0.333333      2.000000
 
 Following cartesian coordinates:
            Coordinates               Weight
  0.000000  0.000000  0.000000      1.000000
  0.032409  0.032409  0.000000      4.000000
  0.064819  0.064819  0.000000      2.000000
  0.064819  0.000000  0.000000      4.000000
  0.097228  0.032409  0.000000      4.000000
  0.129637  0.000000  0.000000      1.000000
  0.000000  0.000000 -0.043151      2.000000
  0.032409  0.032409 -0.043151      8.000000
  0.064819  0.064819 -0.043151      4.000000
  0.064819  0.000000 -0.043151      8.000000
  0.097228  0.032409 -0.043151      8.000000
  0.129637  0.000000 -0.043151      2.000000
 
 TETIRR: Found     74 inequivalent tetrahedra from      288


--------------------------------------------------------------------------------------------------------




 Dimension of arrays:
   k-points           NKPTS =     12   k-points in BZ     NKDIM =     12   number of bands    NBANDS=     98
   number of dos      NEDOS =    301   number of ions     NIONS =     20
   non local maximal  LDIM  =      8   non local SUM 2l+1 LMDIM =     32
   total plane-waves  NPLWV = 105840
   max r-space proj   IRMAX =   8361   max aug-charges    IRDMAX=  24260
   dimension x,y,z NGX =    42 NGY =   42 NGZ =   60
   dimension x,y,z NGXF=    84 NGYF=   84 NGZF=  120
   support grid    NGXF=    84 NGYF=   84 NGZF=  120
   ions per type =               4   1   3  12
   NGX,Y,Z   is equivalent  to a cutoff of  12.80, 12.80, 12.91 a.u.
   NGXF,Y,Z  is equivalent  to a cutoff of  25.60, 25.60, 25.83 a.u.

 SYSTEM =  final                                   
 POSCAR =  SCEL4_2_1_2_0_0_1/1                     

 Startparameter for this run:
   NWRITE =      2    write-flag & timer
   PREC   = accura    normal or accurate (medium, high low for compatibility)
   ISTART =      0    job   : 0-new  1-cont  2-samecut
   ICHARG =      1    charge: 1-file 2-atom 10-const
   ISPIN  =      2    spin polarized calculation?
   LNONCOLLINEAR =      F non collinear calculations
   LSORBIT =      F    spin-orbit coupling
   INIWAV =      1    electr: 0-lowe 1-rand  2-diag
   LASPH  =      F    aspherical Exc in radial PAW
   METAGGA=      F    non-selfconsistent MetaGGA calc.

 Electronic Relaxation 1
   ENCUT  =  520.0 eV  38.22 Ry    6.18 a.u.  10.14 10.14 14.36*2*pi/ulx,y,z
   ENINI  =  520.0     initial cutoff
   ENAUG  =  605.4 eV  augmentation charge cutoff
   NELM   =    100;   NELMIN=  2; NELMDL= -5     # of ELM steps 
   EDIFF  = 0.1E-02   stopping-criterion for ELM
   LREAL  =      T    real-space projection
   NLSPLINE    = F    spline interpolate recip. space projectors
   LCOMPAT=      F    compatible to vasp.4.4
   GGA_COMPAT  = T    GGA compatible to vasp.4.4-vasp.4.6
   LMAXPAW     = -100 max onsite density
   LMAXMIX     =    6 max onsite mixed and CHGCAR
   VOSKOWN=      0    Vosko Wilk Nusair interpolation
   ROPT   =   -0.00025  -0.00025  -0.00025  -0.00025
 Ionic relaxation
   EDIFFG = 0.1E-01   stopping-criterion for IOM
   NSW    =      0    number of steps for IOM
   NBLOCK =      1;   KBLOCK =      1    inner block; outer block 
   IBRION =     -1    ionic relax: 0-MD 1-quasi-New 2-CG
   NFREE  =      0    steps in history (QN), initial steepest desc. (CG)
   ISIF   =      2    stress and relaxation
   IWAVPR =     10    prediction:  0-non 1-charg 2-wave 3-comb
   ISYM   =      2    0-nonsym 1-usesym 2-fastsym
   LCORR  =      T    Harris-Foulkes like correction to forces

   POTIM  = 0.5000    time-step for ionic-motion
   TEIN   =    0.0    initial temperature
   TEBEG  =    0.0;   TEEND  =   0.0 temperature during run
   SMASS  =  -3.00    Nose mass-parameter (am)
   estimated Nose-frequenzy (Omega)   =  0.10E-29 period in steps =****** mass=  -0.680E-27a.u.
   SCALEE = 1.0000    scale energy and forces
   NPACO  =    256;   APACO  = 16.0  distance and # of slots for P.C.
   PSTRESS=    0.0 pullay stress

  Mass of Ions in am
   POMASS = 138.90 54.94 58.69 16.00
  Ionic Valenz
   ZVAL   =  11.00  7.00 10.00  6.00
  Atomic Wigner-Seitz radii
   RWIGS  =  -1.00 -1.00 -1.00 -1.00
  virtual crystal weights 
   VCA    =   1.00  1.00  1.00  1.00
   NELECT =     153.0000    total number of electrons
   NUPDOWN=      -1.0000    fix difference up-down

 DOS related values:
   EMIN   =  10.00;   EMAX   =-10.00  energy-range for DOS
   EFERMI =   0.00
   ISMEAR =    -5;   SIGMA  =   0.05  broadening in eV -4-tet -1-fermi 0-gaus

 Electronic relaxation 2 (details)
   IALGO  =     68    algorithm
   LDIAG  =      T    sub-space diagonalisation (order eigenvalues)
   LSUBROT=      F    optimize rotation matrix (better conditioning)
   TURBO    =      0    0=normal 1=particle mesh
   IRESTART =      0    0=no restart 2=restart with 2 vectors
   NREBOOT  =      0    no. of reboots
   NMIN     =      0    reboot dimension
   EREF     =   0.00    reference energy to select bands
   IMIX   =      4    mixing-type and parameters
     AMIX     =   0.40;   BMIX     =  1.00
     AMIX_MAG =   1.60;   BMIX_MAG =  1.00
     AMIN     =   0.10
     WC   =   100.;   INIMIX=   1;  MIXPRE=   1;  MAXMIX= -45

 Intra band minimization:
   WEIMIN = 0.0000     energy-eigenvalue tresh-hold
   EBREAK =  0.26E-05  absolut break condition
   DEPER  =   0.30     relativ break condition  

   TIME   =   0.40     timestep for ELM

  volume/ion in A,a.u.               =      11.49        77.55
  Fermi-wavevector in a.u.,A,eV,Ry     =   1.429459  2.701285 27.801491  2.043352
  Thomas-Fermi vector in A             =   2.549410
 
 Write flags
   LWAVE        =      F    write WAVECAR
   LDOWNSAMPLE  =      F    k-point downsampling of WAVECAR
   LCHARG       =      T    write CHGCAR
   LVTOT        =      F    write LOCPOT, total local potential
   LVHAR        =      F    write LOCPOT, Hartree potential only
   LELF         =      F    write electronic localiz. function (ELF)
   LORBIT       =     11    0 simple, 1 ext, 2 COOP (PROOUT), +10 PAW based schemes


 Dipole corrections
   LMONO  =      F    monopole corrections only (constant potential shift)
   LDIPOL =      F    correct potential (dipole corrections)
   IDIPOL =      0    1-x, 2-y, 3-z, 4-all directions 
   EPSILON=  1.0000000 bulk dielectric constant

 LDA+U is selected, type is set to LDAUTYPE =  2
   angular momentum for each species LDAUL =     0    2    2    0
   U (eV)           for each species LDAUU =   0.0  3.9  6.2  0.0
   J (eV)           for each species LDAUJ =   0.0  0.0  0.0  0.0
 Exchange correlation treatment:
   GGA     =    --    GGA type
   LEXCH   =     8    internal setting for exchange type
   VOSKOWN=      0    Vosko Wilk Nusair interpolation
   LHFCALC =     F    Hartree Fock is set to
   LHFONE  =     F    Hartree Fock one center treatment
   AEXX    =    0.0000 exact exchange contribution

 Linear response parameters
   LEPSILON=     F    determine dielectric tensor
   LRPA    =     F    only Hartree local field effects (RPA)
   LNABLA  =     F    use nabla operator in PAW spheres
   LVEL    =     F    velocity operator in full k-point grid
   LINTERFAST=   F  fast interpolation
   KINTER  =     0    interpolate to denser k-point grid
   CSHIFT  =0.1000    complex shift for real part using Kramers Kronig
   OMEGAMAX=  -1.0    maximum frequency
   DEG_THRESHOLD= 0.2000000E-02 threshold for treating states as degnerate
   RTIME   =   -0.100 relaxation time in fs
  (WPLASMAI=    0.000 imaginary part of plasma frequency in eV, 0.658/RTIME)
   DFIELD  = 0.0000000 0.0000000 0.0000000 field for delta impulse in time
 
 Orbital magnetization related:
   ORBITALMAG=     F  switch on orbital magnetization
   LCHIMAG   =     F  perturbation theory with respect to B field
   DQ        =  0.001000  dq finite difference perturbation B field
   LLRAUG    =     F  two centre corrections for induced B field



--------------------------------------------------------------------------------------------------------


 Static calculation
 charge density and potential will be updated during run
 spin polarized calculation
 RMM-DIIS sequential band-by-band and
  variant of blocked Davidson during initial phase
 perform sub-space diagonalisation
    before iterative eigenvector-optimisation
 modified Broyden-mixing scheme, WC =      100.0
 initial mixing is a Kerker type mixing with AMIX =  0.4000 and BMIX =      1.0000
 Hartree-type preconditioning will be used
 using additional bands           21
 real space projection scheme for non local part
 use partial core corrections
 calculate Harris-corrections to forces 
   (improved forces if not selfconsistent)
 use gradient corrections 
 use of overlap-Matrix (Vanderbilt PP)
 Fermi weights with tetrahedron method with Bloechl corrections


--------------------------------------------------------------------------------------------------------


  energy-cutoff  :      520.00
  volume of cell :      229.83
      direct lattice vectors                 reciprocal lattice vectors
     3.856919451  3.856919451  0.000000000     0.129637138  0.129637138  0.000000000
     3.856919451 -3.856919451  0.000000000     0.129637138 -0.129637138  0.000000000
     0.000000000  0.000000000 -7.724849525     0.000000000  0.000000000 -0.129452360

  length of vectors
     5.454507797  5.454507797  7.724849525     0.183334599  0.183334599  0.129452360


 
 k-points in units of 2pi/SCALE and weight: Automatic mesh                          
   0.00000000  0.00000000  0.00000000       0.021
   0.03240928  0.03240928  0.00000000       0.083
   0.06481857  0.06481857  0.00000000       0.042
   0.06481857  0.00000000  0.00000000       0.083
   0.09722785  0.03240928  0.00000000       0.083
   0.12963714  0.00000000  0.00000000       0.021
   0.00000000  0.00000000 -0.04315079       0.042
   0.03240928  0.03240928 -0.04315079       0.167
   0.06481857  0.06481857 -0.04315079       0.083
   0.06481857  0.00000000 -0.04315079       0.167
   0.09722785  0.03240928 -0.04315079       0.167
   0.12963714  0.00000000 -0.04315079       0.042
 
 k-points in reciprocal lattice and weights: Automatic mesh                          
   0.00000000  0.00000000  0.00000000       0.021
   0.25000000  0.00000000  0.00000000       0.083
   0.50000000  0.00000000  0.00000000       0.042
   0.25000000  0.25000000  0.00000000       0.083
   0.50000000  0.25000000  0.00000000       0.083
   0.50000000  0.50000000  0.00000000       0.021
   0.00000000  0.00000000  0.33333333       0.042
   0.25000000  0.00000000  0.33333333       0.167
   0.50000000  0.00000000  0.33333333       0.083
   0.25000000  0.25000000  0.33333333       0.167
   0.50000000  0.25000000  0.33333333       0.167
   0.50000000  0.50000000  0.33333333       0.042
 
 position of ions in fractional coordinates (direct lattice) 
   0.50000000  0.50000000  0.99711306
   0.00000000  0.00000000  0.50288694
   0.50000000  0.50000000  0.50288694
   0.00000000  0.00000000  0.99711306
   0.00000000  0.50000000  0.25000000
   0.50000000  0.00000000  0.75000000
   0.00000000  0.50000000  0.75000000
   0.50000000  0.00000000  0.25000000
   0.00000000  0.50000000  0.49633103
   0.50000000  0.00000000  0.50323990
   0.00000000  0.50000000  0.00366897
   0.50000000  0.00000000  0.99676010
   0.75429215  0.74570785  0.25000000
   0.24570785  0.25429215  0.25000000
   0.74888078  0.75111922  0.75000000
   0.25111922  0.24888078  0.75000000
   0.75429215  0.25429215  0.25000000
   0.24570785  0.74570785  0.25000000
   0.74888078  0.24888078  0.75000000
   0.25111922  0.75111922  0.75000000
 
 position of ions in cartesian coordinates  (Angst):
   3.85691945  0.00000000 -7.70254833
   0.00000000  0.00000000 -3.88472596
   3.85691945  0.00000000 -3.88472596
   0.00000000  0.00000000 -7.70254833
   1.92845973 -1.92845973 -1.93121238
   1.92845973  1.92845973 -5.79363714
   1.92845973 -1.92845973 -5.79363714
   1.92845973  1.92845973 -1.93121238
   1.92845973 -1.92845973 -3.83408253
   1.92845973  1.92845973 -3.88745253
   1.92845973 -1.92845973 -0.02834224
   1.92845973  1.92845973 -7.69982176
   5.78537918  0.03310895 -1.93121238
   1.92845973 -0.03310895 -1.93121238
   5.78537918 -0.00863351 -5.79363714
   1.92845973  0.00863351 -5.79363714
   3.89002840  1.92845973 -1.93121238
   3.82381050 -1.92845973 -1.93121238
   3.84828594  1.92845973 -5.79363714
   3.86555297 -1.92845973 -5.79363714
 


--------------------------------------------------------------------------------------------------------


 k-point  1 :   0.0000 0.0000 0.0000  plane waves:    6193
 k-point  2 :   0.2500 0.0000 0.0000  plane waves:    6182
 k-point  3 :   0.5000 0.0000 0.0000  plane waves:    6204
 k-point  4 :   0.2500 0.2500 0.0000  plane waves:    6182
 k-point  5 :   0.5000 0.2500 0.0000  plane waves:    6212
 k-point  6 :   0.5000 0.5000 0.0000  plane waves:    6164
 k-point  7 :   0.0000 0.0000 0.3333  plane waves:    6193
 k-point  8 :   0.2500 0.0000 0.3333  plane waves:    6176
 k-point  9 :   0.5000 0.0000 0.3333  plane waves:    6188
 k-point 10 :   0.2500 0.2500 0.3333  plane waves:    6194
 k-point 11 :   0.5000 0.2500 0.3333  plane waves:    6208
 k-point 12 :   0.5000 0.5000 0.3333  plane waves:    6208

 maximum and minimum number of plane-waves per node :       641      602

 maximum number of plane-waves:      6212
 maximum index in each direction: 
   IXMAX=   10   IYMAX=   10   IZMAX=   14
   IXMIN=  -10   IYMIN=  -10   IZMIN=  -14


 real space projection operators:
  total allocation   :      13506.88 KBytes
  max/ min on nodes  :       1604.16       1213.47


 parallel 3D FFT for wavefunctions:
    minimum data exchange during FFTs selected (reduces bandwidth)
 parallel 3D FFT for charge:
    minimum data exchange during FFTs selected (reduces bandwidth)


 total amount of memory used by VASP MPI-rank0    55533. kBytes
=======================================================================

   base      :      30000. kBytes
   nonlr-proj:       4816. kBytes
   fftplans  :       2032. kBytes
   grid      :       5920. kBytes
   one-center:        196. kBytes
   wavefun   :      12569. kBytes
 
     INWAV:  cpu time    0.0000: real time    0.0000
 Broyden mixing: mesh for mixing (old mesh)
   NGX = 21   NGY = 21   NGZ = 29
  (NGX  = 84   NGY  = 84   NGZ  =120)
  gives a total of  12789 points

 initial charge density was supplied:
 charge density of overlapping atoms calculated
 number of electron     153.0000000 magnetization      13.0000000
 keeping initial charge density in first step


--------------------------------------------------------------------------------------------------------


 Maximum index for non-local projection operator         1175
 Maximum index for augmentation-charges         1937 (set IRDMAX)


--------------------------------------------------------------------------------------------------------


 First call to EWALD:  gamma=   0.289
 Maximum number of real-space cells 3x 3x 2
 Maximum number of reciprocal cells 2x 2x 3

    FEWALD:  cpu time    0.0051: real time    0.0054


--------------------------------------- Iteration      1(   1)  ---------------------------------------


    POTLOK:  cpu time    0.0565: real time    0.0599
    SETDIJ:  cpu time    0.0145: real time    0.0146
atom =   1  type =  1  l = 0
 
 onsite density matrix
 
spin component  1
 
  1.0989
 
spin component  2
 
  1.0989
 
 occupancies and eigenvectors
 
  o =  1.0989  v =  1.0000  0.0000      0.0000  0.0000
  o =  1.0989  v =  0.0000  1.0000      0.0000  0.0000
atom =   2  type =  1  l = 0
 
 onsite density matrix
 
spin component  1
 
  1.0989
 
spin component  2
 
  1.0989
 
 occupancies and eigenvectors
 
  o =  1.0989  v =  1.0000  0.0000      0.0000  0.0000
  o =  1.0989  v =  0.0000  1.0000      0.0000  0.0000
atom =   3  type =  1  l = 0
 
 onsite density matrix
 
spin component  1
 
  1.0989
 
spin component  2
 
  1.0989
 
 occupancies and eigenvectors
 
  o =  1.0989  v =  1.0000  0.0000      0.0000  0.0000
  o =  1.0989  v =  0.0000  1.0000      0.0000  0.0000
atom =   4  type =  1  l = 0
 
 onsite density matrix
 
spin component  1
 
  1.0989
 
spin component  2
 
  1.0989
 
 occupancies and eigenvectors
 
  o =  1.0989  v =  1.0000  0.0000      0.0000  0.0000
  o =  1.0989  v =  0.0000  1.0000      0.0000  0.0000
atom =   5  type =  2  l = 2
 
 onsite density matrix
 
spin component  1
 
  0.8272  0.0000  0.0000  0.0000  0.0000
  0.0000  0.8272  0.0000  0.0000  0.0000
  0.0000  0.0000  0.8272  0.0000  0.0000
  0.0000  0.0000  0.0000  0.8272  0.0000
  0.0000  0.0000  0.0000  0.0000  0.8272
 
spin component  2
 
  0.2256  0.0000  0.0000  0.0000  0.0000
  0.0000  0.2256  0.0000  0.0000  0.0000
  0.0000  0.0000  0.2256  0.0000  0.0000
  0.0000  0.0000  0.0000  0.2256  0.0000
  0.0000  0.0000  0.0000  0.0000  0.2256
 
 occupancies and eigenvectors
 
  o =  0.2256  v =  0.0000  0.0000  0.0000  0.0000  0.0000  0.0000  0.0000  1.0000  0.0000  0.0000      0.0000  0.0000  0.0000  0.0000  0.0000  0.0000  0.0000  0.0000  0.0000  0.0000
  o =  0.2256  v =  0.0000  0.0000  0.0000  0.0000  0.0000  1.0000  0.0000  0.0000  0.0000  0.0000      0.0000  0.0000  0.0000  0.0000  0.0000  0.0000  0.0000  0.0000  0.0000  0.0000
  o =  0.2256  v =  0.0000  0.0000  0.0000  0.0000  0.0000  0.0000  1.0000  0.0000  0.0000  0.0000      0.0000  0.0000  0.0000  0.0000  0.0000  0.0000  0.0000  0.0000  0.0000  0.0000
  o =  0.2256  v =  0.0000  0.0000  0.0000  0.0000  0.0000  0.0000  0.0000  0.0000  1.0000  0.0000      0.0000  0.0000  0.0000  0.0000  0.0000  0.0000  0.0000  0.0000  0.0000  0.0000
  o =  0.2256  v =  0.0000  0.0000  0.0000  0.0000  0.0000  0.0000  0.0000  0.0000  0.0000  1.0000      0.0000  0.0000  0.0000  0.0000  0.0000  0.0000  0.0000  0.0000  0.0000  0.0000
  o =  0.8272  v =  0.0000  1.0000  0.0000  0.0000  0.0000  0.0000  0.0000  0.0000  0.0000  0.0000      0.0000  0.0000  0.0000  0.0000  0.0000  0.0000  0.0000  0.0000  0.0000  0.0000
  o =  0.8272  v =  0.0000  0.0000  1.0000  0.0000  0.0000  0.0000  0.0000  0.0000  0.0000  0.0000      0.0000  0.0000  0.0000  0.0000  0.0000  0.0000  0.0000  0.0000  0.0000  0.0000
  o =  0.8272  v =  1.0000  0.0000  0.0000  0.0000  0.0000  0.0000  0.0000  0.0000  0.0000  0.0000      0.0000  0.0000  0.0000  0.0000  0.0000  0.0000  0.0000  0.0000  0.0000  0.0000
  o =  0.8272  v =  0.0000  0.0000  0.0000  1.0000  0.0000  0.0000  0.0000  0.0000  0.0000  0.0000      0.0000  0.0000  0.0000  0.0000  0.0000  0.0000  0.0000  0.0000  0.0000  0.0000
  o =  0.8272  v =  0.0000  0.0000  0.0000  0.0000  1.0000  0.0000  0.0000  0.0000  0.0000  0.0000      0.0000  0.0000  0.0000  0.0000  0.0000  0.0000  0.0000  0.0000  0.0000  0.0000
atom =   6  type =  3  l = 2
 
 onsite density matrix
 
spin component  1
 
  1.1008  0.0000  0.0000  0.0000  0.0000
  0.0000  1.1008  0.0000  0.0000  0.0000
  0.0000  0.0000  1.1008  0.0000  0.0000
  0.0000  0.0000  0.0000  1.1008  0.0000
  0.0000  0.0000  0.0000  0.0000  1.1008
 
spin component  2
 
  0.5927  0.0000  0.0000  0.0000  0.0000
  0.0000  0.5927  0.0000  0.0000  0.0000
  0.0000  0.0000  0.5927  0.0000  0.0000
  0.0000  0.0000  0.0000  0.5927  0.0000
  0.0000  0.0000  0.0000  0.0000  0.5927
 
 occupancies and eigenvectors
 
  o =  0.5927  v =  0.0000  0.0000  0.0000  0.0000  0.0000  1.0000  0.0000  0.0000  0.0000  0.0000      0.0000  0.0000  0.0000  0.0000  0.0000  0.0000  0.0000  0.0000  0.0000  0.0000
  o =  0.5927  v =  0.0000  0.0000  0.0000  0.0000  0.0000  0.0000  1.0000  0.0000  0.0000  0.0000      0.0000  0.0000  0.0000  0.0000  0.0000  0.0000  0.0000  0.0000  0.0000  0.0000
  o =  0.5927  v =  0.0000  0.0000  0.0000  0.0000  0.0000  0.0000  0.0000  1.0000  0.0000  0.0000      0.0000  0.0000  0.0000  0.0000  0.0000  0.0000  0.0000  0.0000  0.0000  0.0000
  o =  0.5927  v =  0.0000  0.0000  0.0000  0.0000  0.0000  0.0000  0.0000  0.0000  1.0000  0.0000      0.0000  0.0000  0.0000  0.0000  0.0000  0.0000  0.0000  0.0000  0.0000  0.0000
  o =  0.5927  v =  0.0000  0.0000  0.0000  0.0000  0.0000  0.0000  0.0000  0.0000  0.0000  1.0000      0.0000  0.0000  0.0000  0.0000  0.0000  0.0000  0.0000  0.0000  0.0000  0.0000
  o =  1.1008  v =  1.0000  0.0000  0.0000  0.0000  0.0000  0.0000  0.0000  0.0000  0.0000  0.0000      0.0000  0.0000  0.0000  0.0000  0.0000  0.0000  0.0000  0.0000  0.0000  0.0000
  o =  1.1008  v =  0.0000  1.0000  0.0000  0.0000  0.0000  0.0000  0.0000  0.0000  0.0000  0.0000      0.0000  0.0000  0.0000  0.0000  0.0000  0.0000  0.0000  0.0000  0.0000  0.0000
  o =  1.1008  v =  0.0000  0.0000  1.0000  0.0000  0.0000  0.0000  0.0000  0.0000  0.0000  0.0000      0.0000  0.0000  0.0000  0.0000  0.0000  0.0000  0.0000  0.0000  0.0000  0.0000
  o =  1.1008  v =  0.0000  0.0000  0.0000  1.0000  0.0000  0.0000  0.0000  0.0000  0.0000  0.0000      0.0000  0.0000  0.0000  0.0000  0.0000  0.0000  0.0000  0.0000  0.0000  0.0000
  o =  1.1008  v =  0.0000  0.0000  0.0000  0.0000  1.0000  0.0000  0.0000  0.0000  0.0000  0.0000      0.0000  0.0000  0.0000  0.0000  0.0000  0.0000  0.0000  0.0000  0.0000  0.0000
atom =   7  type =  3  l = 2
 
 onsite density matrix
 
spin component  1
 
  1.1008  0.0000  0.0000  0.0000  0.0000
  0.0000  1.1008  0.0000  0.0000  0.0000
  0.0000  0.0000  1.1008  0.0000  0.0000
  0.0000  0.0000  0.0000  1.1008  0.0000
  0.0000  0.0000  0.0000  0.0000  1.1008
 
spin component  2
 
  0.5927  0.0000  0.0000  0.0000  0.0000
  0.0000  0.5927  0.0000  0.0000  0.0000
  0.0000  0.0000  0.5927  0.0000  0.0000
  0.0000  0.0000  0.0000  0.5927  0.0000
  0.0000  0.0000  0.0000  0.0000  0.5927
 
 occupancies and eigenvectors
 
  o =  0.5927  v =  0.0000  0.0000  0.0000  0.0000  0.0000  1.0000  0.0000  0.0000  0.0000  0.0000      0.0000  0.0000  0.0000  0.0000  0.0000  0.0000  0.0000  0.0000  0.0000  0.0000
  o =  0.5927  v =  0.0000  0.0000  0.0000  0.0000  0.0000  0.0000  1.0000  0.0000  0.0000  0.0000      0.0000  0.0000  0.0000  0.0000  0.0000  0.0000  0.0000  0.0000  0.0000  0.0000
  o =  0.5927  v =  0.0000  0.0000  0.0000  0.0000  0.0000  0.0000  0.0000  1.0000  0.0000  0.0000      0.0000  0.0000  0.0000  0.0000  0.0000  0.0000  0.0000  0.0000  0.0000  0.0000
  o =  0.5927  v =  0.0000  0.0000  0.0000  0.0000  0.0000  0.0000  0.0000  0.0000  1.0000  0.0000      0.0000  0.0000  0.0000  0.0000  0.0000  0.0000  0.0000  0.0000  0.0000  0.0000
  o =  0.5927  v =  0.0000  0.0000  0.0000  0.0000  0.0000  0.0000  0.0000  0.0000  0.0000  1.0000      0.0000  0.0000  0.0000  0.0000  0.0000  0.0000  0.0000  0.0000  0.0000  0.0000
  o =  1.1008  v =  1.0000  0.0000  0.0000  0.0000  0.0000  0.0000  0.0000  0.0000  0.0000  0.0000      0.0000  0.0000  0.0000  0.0000  0.0000  0.0000  0.0000  0.0000  0.0000  0.0000
  o =  1.1008  v =  0.0000  1.0000  0.0000  0.0000  0.0000  0.0000  0.0000  0.0000  0.0000  0.0000      0.0000  0.0000  0.0000  0.0000  0.0000  0.0000  0.0000  0.0000  0.0000  0.0000
  o =  1.1008  v =  0.0000  0.0000  1.0000  0.0000  0.0000  0.0000  0.0000  0.0000  0.0000  0.0000      0.0000  0.0000  0.0000  0.0000  0.0000  0.0000  0.0000  0.0000  0.0000  0.0000
  o =  1.1008  v =  0.0000  0.0000  0.0000  1.0000  0.0000  0.0000  0.0000  0.0000  0.0000  0.0000      0.0000  0.0000  0.0000  0.0000  0.0000  0.0000  0.0000  0.0000  0.0000  0.0000
  o =  1.1008  v =  0.0000  0.0000  0.0000  0.0000  1.0000  0.0000  0.0000  0.0000  0.0000  0.0000      0.0000  0.0000  0.0000  0.0000  0.0000  0.0000  0.0000  0.0000  0.0000  0.0000
atom =   8  type =  3  l = 2
 
 onsite density matrix
 
spin component  1
 
  1.1008  0.0000  0.0000  0.0000  0.0000
  0.0000  1.1008  0.0000  0.0000  0.0000
  0.0000  0.0000  1.1008  0.0000  0.0000
  0.0000  0.0000  0.0000  1.1008  0.0000
  0.0000  0.0000  0.0000  0.0000  1.1008
 
spin component  2
 
  0.5927  0.0000  0.0000  0.0000  0.0000
  0.0000  0.5927  0.0000  0.0000  0.0000
  0.0000  0.0000  0.5927  0.0000  0.0000
  0.0000  0.0000  0.0000  0.5927  0.0000
  0.0000  0.0000  0.0000  0.0000  0.5927
 
 occupancies and eigenvectors
 
  o =  0.5927  v =  0.0000  0.0000  0.0000  0.0000  0.0000  1.0000  0.0000  0.0000  0.0000  0.0000      0.0000  0.0000  0.0000  0.0000  0.0000  0.0000  0.0000  0.0000  0.0000  0.0000
  o =  0.5927  v =  0.0000  0.0000  0.0000  0.0000  0.0000  0.0000  1.0000  0.0000  0.0000  0.0000      0.0000  0.0000  0.0000  0.0000  0.0000  0.0000  0.0000  0.0000  0.0000  0.0000
  o =  0.5927  v =  0.0000  0.0000  0.0000  0.0000  0.0000  0.0000  0.0000  1.0000  0.0000  0.0000      0.0000  0.0000  0.0000  0.0000  0.0000  0.0000  0.0000  0.0000  0.0000  0.0000
  o =  0.5927  v =  0.0000  0.0000  0.0000  0.0000  0.0000  0.0000  0.0000  0.0000  1.0000  0.0000      0.0000  0.0000  0.0000  0.0000  0.0000  0.0000  0.0000  0.0000  0.0000  0.0000
  o =  0.5927  v =  0.0000  0.0000  0.0000  0.0000  0.0000  0.0000  0.0000  0.0000  0.0000  1.0000      0.0000  0.0000  0.0000  0.0000  0.0000  0.0000  0.0000  0.0000  0.0000  0.0000
  o =  1.1008  v =  1.0000  0.0000  0.0000  0.0000  0.0000  0.0000  0.0000  0.0000  0.0000  0.0000      0.0000  0.0000  0.0000  0.0000  0.0000  0.0000  0.0000  0.0000  0.0000  0.0000
  o =  1.1008  v =  0.0000  1.0000  0.0000  0.0000  0.0000  0.0000  0.0000  0.0000  0.0000  0.0000      0.0000  0.0000  0.0000  0.0000  0.0000  0.0000  0.0000  0.0000  0.0000  0.0000
  o =  1.1008  v =  0.0000  0.0000  1.0000  0.0000  0.0000  0.0000  0.0000  0.0000  0.0000  0.0000      0.0000  0.0000  0.0000  0.0000  0.0000  0.0000  0.0000  0.0000  0.0000  0.0000
  o =  1.1008  v =  0.0000  0.0000  0.0000  1.0000  0.0000  0.0000  0.0000  0.0000  0.0000  0.0000      0.0000  0.0000  0.0000  0.0000  0.0000  0.0000  0.0000  0.0000  0.0000  0.0000
  o =  1.1008  v =  0.0000  0.0000  0.0000  0.0000  1.0000  0.0000  0.0000  0.0000  0.0000  0.0000      0.0000  0.0000  0.0000  0.0000  0.0000  0.0000  0.0000  0.0000  0.0000  0.0000
atom =   9  type =  4  l = 0
 
 onsite density matrix
 
spin component  1
 
  0.8190
 
spin component  2
 
  0.8190
 
 occupancies and eigenvectors
 
  o =  0.8190  v =  1.0000  0.0000      0.0000  0.0000
  o =  0.8190  v =  0.0000  1.0000      0.0000  0.0000
atom =  10  type =  4  l = 0
 
 onsite density matrix
 
spin component  1
 
  0.8190
 
spin component  2
 
  0.8190
 
 occupancies and eigenvectors
 
  o =  0.8190  v =  1.0000  0.0000      0.0000  0.0000
  o =  0.8190  v =  0.0000  1.0000      0.0000  0.0000
atom =  11  type =  4  l = 0
 
 onsite density matrix
 
spin component  1
 
  0.8190
 
spin component  2
 
  0.8190
 
 occupancies and eigenvectors
 
  o =  0.8190  v =  1.0000  0.0000      0.0000  0.0000
  o =  0.8190  v =  0.0000  1.0000      0.0000  0.0000
atom =  12  type =  4  l = 0
 
 onsite density matrix
 
spin component  1
 
  0.8190
 
spin component  2
 
  0.8190
 
 occupancies and eigenvectors
 
  o =  0.8190  v =  1.0000  0.0000      0.0000  0.0000
  o =  0.8190  v =  0.0000  1.0000      0.0000  0.0000
atom =  13  type =  4  l = 0
 
 onsite density matrix
 
spin component  1
 
  0.8190
 
spin component  2
 
  0.8190
 
 occupancies and eigenvectors
 
  o =  0.8190  v =  1.0000  0.0000      0.0000  0.0000
  o =  0.8190  v =  0.0000  1.0000      0.0000  0.0000
atom =  14  type =  4  l = 0
 
 onsite density matrix
 
spin component  1
 
  0.8190
 
spin component  2
 
  0.8190
 
 occupancies and eigenvectors
 
  o =  0.8190  v =  1.0000  0.0000      0.0000  0.0000
  o =  0.8190  v =  0.0000  1.0000      0.0000  0.0000
atom =  15  type =  4  l = 0
 
 onsite density matrix
 
spin component  1
 
  0.8190
 
spin component  2
 
  0.8190
 
 occupancies and eigenvectors
 
  o =  0.8190  v =  1.0000  0.0000      0.0000  0.0000
  o =  0.8190  v =  0.0000  1.0000      0.0000  0.0000
atom =  16  type =  4  l = 0
 
 onsite density matrix
 
spin component  1
 
  0.8190
 
spin component  2
 
  0.8190
 
 occupancies and eigenvectors
 
  o =  0.8190  v =  1.0000  0.0000      0.0000  0.0000
  o =  0.8190  v =  0.0000  1.0000      0.0000  0.0000
atom =  17  type =  4  l = 0
 
 onsite density matrix
 
spin component  1
 
  0.8190
 
spin component  2
 
  0.8190
 
 occupancies and eigenvectors
 
  o =  0.8190  v =  1.0000  0.0000      0.0000  0.0000
  o =  0.8190  v =  0.0000  1.0000      0.0000  0.0000
atom =  18  type =  4  l = 0
 
 onsite density matrix
 
spin component  1
 
  0.8190
 
spin component  2
 
  0.8190
 
 occupancies and eigenvectors
 
  o =  0.8190  v =  1.0000  0.0000      0.0000  0.0000
  o =  0.8190  v =  0.0000  1.0000      0.0000  0.0000
atom =  19  type =  4  l = 0
 
 onsite density matrix
 
spin component  1
 
  0.8190
 
spin component  2
 
  0.8190
 
 occupancies and eigenvectors
 
  o =  0.8190  v =  1.0000  0.0000      0.0000  0.0000
  o =  0.8190  v =  0.0000  1.0000      0.0000  0.0000
atom =  20  type =  4  l = 0
 
 onsite density matrix
 
spin component  1
 
  0.8190
 
spin component  2
 
  0.8190
 
 occupancies and eigenvectors
 
  o =  0.8190  v =  1.0000  0.0000      0.0000  0.0000
  o =  0.8190  v =  0.0000  1.0000      0.0000  0.0000
     EDDAV:  cpu time    1.7698: real time    1.7777
 BZINTS: Fermi energy: 29.851049;153.000000 electrons
         Band energy:2197.309758;  BLOECHL correction: -0.194944
       DOS:  cpu time    0.0214: real time    0.0220
    --------------------------------------------
      LOOP:  cpu time    1.8622: real time    1.8742

 eigenvalue-minimisations  :  4992
 total energy-change (2. order) : 0.2268109E+04  (-0.5633939E+04)
 number of electron     153.0000000 magnetization      13.0000000
 augmentation part      153.0000000 magnetization      13.0000000

 Free energy of the ion-electron system (eV)
  ---------------------------------------------------
  alpha Z        PSCENC =       662.61239197
  Ewald energy   TEWEN  =    -10798.62936216
  -Hartree energ DENC   =     -2516.96486837
  -exchange      EXHF   =         0.00000000
  -V(xc)+E(xc)   XCENC  =       546.26277539
  PAW double counting   =     10024.85533752   -10149.29831327
  entropy T*S    EENTRO =         0.00000000
  eigenvalues    EBANDS =      2197.30975804
  atomic energy  EATOM  =     12301.96174248
  Solvation  Ediel_sol  =         0.00000000
  ---------------------------------------------------
  free energy    TOTEN  =      2268.10946160 eV

  energy without entropy =     2268.10946160  energy(sigma->0) =     2268.10946160


--------------------------------------------------------------------------------------------------------




--------------------------------------- Iteration      1(   2)  ---------------------------------------


     EDDAV:  cpu time    1.8415: real time    1.8520
 BZINTS: Fermi energy: 15.972099;153.000000 electrons
         Band energy: 648.312025;  BLOECHL correction: -0.055817
       DOS:  cpu time    0.0214: real time    0.0214
    --------------------------------------------
      LOOP:  cpu time    1.8629: real time    1.8734

 eigenvalue-minimisations  :  5296
 total energy-change (2. order) :-0.1548998E+04  (-0.1408089E+04)
 number of electron     153.0000000 magnetization      13.0000000
 augmentation part      153.0000000 magnetization      13.0000000

 Free energy of the ion-electron system (eV)
  ---------------------------------------------------
  alpha Z        PSCENC =       662.61239197
  Ewald energy   TEWEN  =    -10798.62936216
  -Hartree energ DENC   =     -2516.96486837
  -exchange      EXHF   =         0.00000000
  -V(xc)+E(xc)   XCENC  =       546.26277539
  PAW double counting   =     10024.85533752   -10149.29831327
  entropy T*S    EENTRO =         0.00000000
  eigenvalues    EBANDS =       648.31202494
  atomic energy  EATOM  =     12301.96174248
  Solvation  Ediel_sol  =         0.00000000
  ---------------------------------------------------
  free energy    TOTEN  =       719.11172851 eV

  energy without entropy =      719.11172851  energy(sigma->0) =      719.11172851


--------------------------------------------------------------------------------------------------------




--------------------------------------- Iteration      1(   3)  ---------------------------------------


     EDDAV:  cpu time    1.8654: real time    1.8741
 BZINTS: Fermi energy: 12.356312;153.000000 electrons
         Band energy:  45.740996;  BLOECHL correction: -0.023654
       DOS:  cpu time    0.0234: real time    0.0234
    --------------------------------------------
      LOOP:  cpu time    1.8888: real time    1.8975

 eigenvalue-minimisations  :  5312
 total energy-change (2. order) :-0.6025710E+03  (-0.5470803E+03)
 number of electron     153.0000000 magnetization      13.0000000
 augmentation part      153.0000000 magnetization      13.0000000

 Free energy of the ion-electron system (eV)
  ---------------------------------------------------
  alpha Z        PSCENC =       662.61239197
  Ewald energy   TEWEN  =    -10798.62936216
  -Hartree energ DENC   =     -2516.96486837
  -exchange      EXHF   =         0.00000000
  -V(xc)+E(xc)   XCENC  =       546.26277539
  PAW double counting   =     10024.85533752   -10149.29831327
  entropy T*S    EENTRO =         0.00000000
  eigenvalues    EBANDS =        45.74099644
  atomic energy  EATOM  =     12301.96174248
  Solvation  Ediel_sol  =         0.00000000
  ---------------------------------------------------
  free energy    TOTEN  =       116.54070000 eV

  energy without entropy =      116.54070000  energy(sigma->0) =      116.54070000


--------------------------------------------------------------------------------------------------------




--------------------------------------- Iteration      1(   4)  ---------------------------------------


     EDDAV:  cpu time    2.5132: real time    2.5227
 BZINTS: Fermi energy: 11.781610;153.000000 electrons
         Band energy:-190.664230;  BLOECHL correction: -0.033004
       DOS:  cpu time    0.0190: real time    0.0191
    --------------------------------------------
      LOOP:  cpu time    2.5322: real time    2.5418

 eigenvalue-minimisations  :  7738
 total energy-change (2. order) :-0.2364052E+03  (-0.2254087E+03)
 number of electron     153.0000000 magnetization      13.0000000
 augmentation part      153.0000000 magnetization      13.0000000

 Free energy of the ion-electron system (eV)
  ---------------------------------------------------
  alpha Z        PSCENC =       662.61239197
  Ewald energy   TEWEN  =    -10798.62936216
  -Hartree energ DENC   =     -2516.96486837
  -exchange      EXHF   =         0.00000000
  -V(xc)+E(xc)   XCENC  =       546.26277539
  PAW double counting   =     10024.85533752   -10149.29831327
  entropy T*S    EENTRO =         0.00000000
  eigenvalues    EBANDS =      -190.66422987
  atomic energy  EATOM  =     12301.96174248
  Solvation  Ediel_sol  =         0.00000000
  ---------------------------------------------------
  free energy    TOTEN  =      -119.86452630 eV

  energy without entropy =     -119.86452630  energy(sigma->0) =     -119.86452630


--------------------------------------------------------------------------------------------------------




--------------------------------------- Iteration      1(   5)  ---------------------------------------


     EDDAV:  cpu time    2.7826: real time    2.7929
 BZINTS: Fermi energy: 11.305890;153.000000 electrons
         Band energy:-233.166620;  BLOECHL correction: -0.050395
       DOS:  cpu time    0.0181: real time    0.0181
    CHARGE:  cpu time    0.1015: real time    0.1020
    MIXING:  cpu time    0.0026: real time    0.0032
    --------------------------------------------
      LOOP:  cpu time    2.9049: real time    2.9163

 eigenvalue-minimisations  :  8612
 total energy-change (2. order) :-0.4250239E+02  (-0.4105668E+02)
 number of electron     153.0000079 magnetization      11.9392606
 augmentation part       21.1644682 magnetization       8.9812278

 Broyden mixing:
  rms(total) = 0.66504E+01    rms(broyden)= 0.66501E+01
  rms(prec ) = 0.80965E+01
  weight for this iteration     100.00

 Free energy of the ion-electron system (eV)
  ---------------------------------------------------
  alpha Z        PSCENC =       662.61239197
  Ewald energy   TEWEN  =    -10798.62936216
  -Hartree energ DENC   =     -2516.96486837
  -exchange      EXHF   =         0.00000000
  -V(xc)+E(xc)   XCENC  =       546.26277539
  PAW double counting   =     10024.85533752   -10149.29831327
  entropy T*S    EENTRO =         0.00000000
  eigenvalues    EBANDS =      -233.16662009
  atomic energy  EATOM  =     12301.96174248
  Solvation  Ediel_sol  =         0.00000000
  ---------------------------------------------------
  free energy    TOTEN  =      -162.36691653 eV

  energy without entropy =     -162.36691653  energy(sigma->0) =     -162.36691653


--------------------------------------------------------------------------------------------------------




--------------------------------------- Iteration      1(   6)  ---------------------------------------


    POTLOK:  cpu time    0.0521: real time    0.0537
    SETDIJ:  cpu time    0.0113: real time    0.0113
atom =   1  type =  1  l = 0
 
 onsite density matrix
 
spin component  1
 
  1.0574
 
spin component  2
 
  1.0568
 
 occupancies and eigenvectors
 
  o =  1.0568  v =  0.0000  1.0000      0.0000  0.0000
  o =  1.0574  v =  1.0000  0.0000      0.0000  0.0000
atom =   2  type =  1  l = 0
 
 onsite density matrix
 
spin component  1
 
  1.0574
 
spin component  2
 
  1.0568
 
 occupancies and eigenvectors
 
  o =  1.0568  v =  0.0000  1.0000      0.0000  0.0000
  o =  1.0574  v =  1.0000  0.0000      0.0000  0.0000
atom =   3  type =  1  l = 0
 
 onsite density matrix
 
spin component  1
 
  1.0574
 
spin component  2
 
  1.0568
 
 occupancies and eigenvectors
 
  o =  1.0568  v =  0.0000  1.0000      0.0000  0.0000
  o =  1.0574  v =  1.0000  0.0000      0.0000  0.0000
atom =   4  type =  1  l = 0
 
 onsite density matrix
 
spin component  1
 
  1.0574
 
spin component  2
 
  1.0568
 
 occupancies and eigenvectors
 
  o =  1.0568  v =  0.0000  1.0000      0.0000  0.0000
  o =  1.0574  v =  1.0000  0.0000      0.0000  0.0000
atom =   5  type =  2  l = 2
 
 onsite density matrix
 
spin component  1
 
  0.9627 -0.0000 -0.0000 -0.0000  0.0000
 -0.0000  0.9702 -0.0000 -0.0000  0.0000
 -0.0000 -0.0000  0.3477 -0.0000  0.0000
 -0.0000 -0.0000 -0.0000  0.9702 -0.0000
  0.0000  0.0000  0.0000 -0.0000  0.3481
 
spin component  2
 
  0.0354  0.0000  0.0000  0.0000 -0.0000
  0.0000  0.0274  0.0000  0.0000 -0.0000
  0.0000  0.0000  0.4557  0.0000 -0.0000
  0.0000  0.0000  0.0000  0.0274  0.0000
 -0.0000 -0.0000 -0.0000  0.0000  0.4579
 
 occupancies and eigenvectors
 
  o =  0.0274  v =  0.0000  0.0000  0.0000  0.0000  0.0000  0.0000  0.0268 -0.0000 -0.9996  0.0000      0.0000  0.0000  0.0000  0.0000  0.0000  0.0000  0.0000  0.0000  0.0000  0.0000
  o =  0.0274  v =  0.0000  0.0000  0.0000  0.0000  0.0000  0.0000  0.9996  0.0000  0.0268 -0.0000      0.0000  0.0000  0.0000  0.0000  0.0000  0.0000  0.0000  0.0000  0.0000  0.0000
  o =  0.0354  v =  0.0000  0.0000  0.0000  0.0000  0.0000  1.0000  0.0000  0.0000  0.0000  0.0000      0.0000  0.0000  0.0000  0.0000  0.0000  0.0000  0.0000  0.0000  0.0000  0.0000
  o =  0.3477  v =  0.0000  0.0000 -1.0000 -0.0000  0.0000  0.0000  0.0000  0.0000  0.0000  0.0000      0.0000  0.0000  0.0000  0.0000  0.0000  0.0000  0.0000  0.0000  0.0000  0.0000
  o =  0.3481  v =  0.0000 -0.0000  0.0000 -0.0000  1.0000  0.0000  0.0000  0.0000  0.0000  0.0000      0.0000  0.0000  0.0000  0.0000  0.0000  0.0000  0.0000  0.0000  0.0000  0.0000
  o =  0.4557  v =  0.0000  0.0000  0.0000  0.0000  0.0000  0.0000 -0.0000 -1.0000 -0.0000 -0.0000      0.0000  0.0000  0.0000  0.0000  0.0000  0.0000  0.0000  0.0000  0.0000  0.0000
  o =  0.4579  v =  0.0000  0.0000  0.0000  0.0000  0.0000  0.0000 -0.0000  0.0000 -0.0000 -1.0000      0.0000  0.0000  0.0000  0.0000  0.0000  0.0000  0.0000  0.0000  0.0000  0.0000
  o =  0.9627  v =  1.0000  0.0000  0.0000  0.0000  0.0000  0.0000  0.0000  0.0000  0.0000  0.0000      0.0000  0.0000  0.0000  0.0000  0.0000  0.0000  0.0000  0.0000  0.0000  0.0000
  o =  0.9702  v =  0.0000 -0.9647 -0.0000  0.2632 -0.0000  0.0000  0.0000  0.0000  0.0000  0.0000      0.0000  0.0000  0.0000  0.0000  0.0000  0.0000  0.0000  0.0000  0.0000  0.0000
  o =  0.9702  v =  0.0000  0.2632 -0.0000  0.9647  0.0000  0.0000  0.0000  0.0000  0.0000  0.0000      0.0000  0.0000  0.0000  0.0000  0.0000  0.0000  0.0000  0.0000  0.0000  0.0000
atom =   6  type =  3  l = 2
 
 onsite density matrix
 
spin component  1
 
  0.9868  0.0000  0.0000  0.0000 -0.0000
  0.0000  1.0252 -0.0000 -0.0000  0.0000
  0.0000 -0.0000  1.3276 -0.0000 -0.0000
  0.0000 -0.0000 -0.0000  1.0252 -0.0000
 -0.0000  0.0000 -0.0000 -0.0000  1.3312
 
spin component  2
 
  0.6622 -0.0000 -0.0000 -0.0000  0.0000
 -0.0000  0.5997  0.0000 -0.0000 -0.0000
 -0.0000  0.0000  0.1997  0.0000  0.0000
 -0.0000 -0.0000  0.0000  0.5997  0.0000
  0.0000 -0.0000  0.0000  0.0000  0.1946
 
 occupancies and eigenvectors
 
  o =  0.1946  v =  0.0000  0.0000  0.0000  0.0000  0.0000  0.0000 -0.0000 -0.0000  0.0000 -1.0000      0.0000  0.0000  0.0000  0.0000  0.0000  0.0000  0.0000  0.0000  0.0000  0.0000
  o =  0.1997  v =  0.0000  0.0000  0.0000  0.0000  0.0000  0.0000  0.0000 -1.0000  0.0000  0.0000      0.0000  0.0000  0.0000  0.0000  0.0000  0.0000  0.0000  0.0000  0.0000  0.0000
  o =  0.5997  v =  0.0000  0.0000  0.0000  0.0000  0.0000  0.0000  0.8068  0.0000  0.5908 -0.0000      0.0000  0.0000  0.0000  0.0000  0.0000  0.0000  0.0000  0.0000  0.0000  0.0000
  o =  0.5997  v =  0.0000  0.0000  0.0000  0.0000  0.0000  0.0000  0.5908  0.0000 -0.8068 -0.0000      0.0000  0.0000  0.0000  0.0000  0.0000  0.0000  0.0000  0.0000  0.0000  0.0000
  o =  0.6622  v =  0.0000  0.0000  0.0000  0.0000  0.0000  1.0000  0.0000  0.0000  0.0000  0.0000      0.0000  0.0000  0.0000  0.0000  0.0000  0.0000  0.0000  0.0000  0.0000  0.0000
  o =  0.9868  v =  1.0000  0.0000  0.0000  0.0000  0.0000  0.0000  0.0000  0.0000  0.0000  0.0000      0.0000  0.0000  0.0000  0.0000  0.0000  0.0000  0.0000  0.0000  0.0000  0.0000
  o =  1.0252  v =  0.0000  0.2955 -0.0000  0.9553  0.0000  0.0000  0.0000  0.0000  0.0000  0.0000      0.0000  0.0000  0.0000  0.0000  0.0000  0.0000  0.0000  0.0000  0.0000  0.0000
  o =  1.0252  v =  0.0000  0.9553 -0.0000 -0.2955  0.0000  0.0000  0.0000  0.0000  0.0000  0.0000      0.0000  0.0000  0.0000  0.0000  0.0000  0.0000  0.0000  0.0000  0.0000  0.0000
  o =  1.3276  v =  0.0000  0.0000  1.0000  0.0000  0.0000  0.0000  0.0000  0.0000  0.0000  0.0000      0.0000  0.0000  0.0000  0.0000  0.0000  0.0000  0.0000  0.0000  0.0000  0.0000
  o =  1.3312  v =  0.0000 -0.0000 -0.0000  0.0000  1.0000  0.0000  0.0000  0.0000  0.0000  0.0000      0.0000  0.0000  0.0000  0.0000  0.0000  0.0000  0.0000  0.0000  0.0000  0.0000
atom =   7  type =  3  l = 2
 
 onsite density matrix
 
spin component  1
 
  1.0245  0.0000  0.0000  0.0000 -0.0000
  0.0000  0.9661 -0.0000 -0.0000 -0.0000
  0.0000 -0.0000  1.3110 -0.0000  0.0000
  0.0000 -0.0000 -0.0000  0.9661 -0.0000
 -0.0000 -0.0000  0.0000 -0.0000  1.3314
 
spin component  2
 
  0.5969 -0.0000 -0.0000 -0.0000 -0.0000
 -0.0000  0.6938  0.0000  0.0000 -0.0000
 -0.0000  0.0000  0.1933  0.0000  0.0000
 -0.0000  0.0000  0.0000  0.6938 -0.0000
 -0.0000 -0.0000  0.0000 -0.0000  0.1861
 
 occupancies and eigenvectors
 
  o =  0.1861  v =  0.0000  0.0000  0.0000  0.0000  0.0000  0.0000  0.0000  0.0000 -0.0000 -1.0000      0.0000  0.0000  0.0000  0.0000  0.0000  0.0000  0.0000  0.0000  0.0000  0.0000
  o =  0.1933  v =  0.0000  0.0000  0.0000  0.0000  0.0000  0.0000 -0.0000 -1.0000 -0.0000 -0.0000      0.0000  0.0000  0.0000  0.0000  0.0000  0.0000  0.0000  0.0000  0.0000  0.0000
  o =  0.5969  v =  0.0000  0.0000  0.0000  0.0000  0.0000  1.0000  0.0000  0.0000  0.0000  0.0000      0.0000  0.0000  0.0000  0.0000  0.0000  0.0000  0.0000  0.0000  0.0000  0.0000
  o =  0.6938  v =  0.0000  0.0000  0.0000  0.0000  0.0000  0.0000 -0.3347 -0.0000  0.9423 -0.0000      0.0000  0.0000  0.0000  0.0000  0.0000  0.0000  0.0000  0.0000  0.0000  0.0000
  o =  0.6938  v =  0.0000  0.0000  0.0000  0.0000  0.0000  0.0000 -0.9423  0.0000 -0.3347 -0.0000      0.0000  0.0000  0.0000  0.0000  0.0000  0.0000  0.0000  0.0000  0.0000  0.0000
  o =  0.9661  v =  0.0000  0.6662 -0.0000  0.7458 -0.0000  0.0000  0.0000  0.0000  0.0000  0.0000      0.0000  0.0000  0.0000  0.0000  0.0000  0.0000  0.0000  0.0000  0.0000  0.0000
  o =  0.9661  v =  0.0000  0.7458  0.0000 -0.6662  0.0000  0.0000  0.0000  0.0000  0.0000  0.0000      0.0000  0.0000  0.0000  0.0000  0.0000  0.0000  0.0000  0.0000  0.0000  0.0000
  o =  1.0245  v =  1.0000  0.0000  0.0000  0.0000  0.0000  0.0000  0.0000  0.0000  0.0000  0.0000      0.0000  0.0000  0.0000  0.0000  0.0000  0.0000  0.0000  0.0000  0.0000  0.0000
  o =  1.3110  v =  0.0000 -0.0000 -1.0000 -0.0000 -0.0000  0.0000  0.0000  0.0000  0.0000  0.0000      0.0000  0.0000  0.0000  0.0000  0.0000  0.0000  0.0000  0.0000  0.0000  0.0000
  o =  1.3314  v =  0.0000  0.0000  0.0000 -0.0000 -1.0000  0.0000  0.0000  0.0000  0.0000  0.0000      0.0000  0.0000  0.0000  0.0000  0.0000  0.0000  0.0000  0.0000  0.0000  0.0000
atom =   8  type =  3  l = 2
 
 onsite density matrix
 
spin component  1
 
  0.9433 -0.0000 -0.0000  0.0000  0.0000
 -0.0000  0.9909 -0.0000  0.0000  0.0000
 -0.0000 -0.0000  1.3186  0.0000 -0.0000
  0.0000  0.0000  0.0000  0.9909 -0.0000
  0.0000  0.0000 -0.0000 -0.0000  1.3048
 
spin component  2
 
  0.7305 -0.0000  0.0000 -0.0000 -0.0000
 -0.0000  0.6519  0.0000 -0.0000  0.0000
  0.0000  0.0000  0.1855  0.0000  0.0000
 -0.0000 -0.0000  0.0000  0.6519 -0.0000
 -0.0000  0.0000  0.0000 -0.0000  0.1922
 
 occupancies and eigenvectors
 
  o =  0.1855  v =  0.0000  0.0000  0.0000  0.0000  0.0000  0.0000  0.0000  1.0000 -0.0000 -0.0000      0.0000  0.0000  0.0000  0.0000  0.0000  0.0000  0.0000  0.0000  0.0000  0.0000
  o =  0.1922  v =  0.0000  0.0000  0.0000  0.0000  0.0000  0.0000 -0.0000 -0.0000 -0.0000 -1.0000      0.0000  0.0000  0.0000  0.0000  0.0000  0.0000  0.0000  0.0000  0.0000  0.0000
  o =  0.6519  v =  0.0000  0.0000  0.0000  0.0000  0.0000  0.0000  0.9695  0.0000 -0.2451 -0.0000      0.0000  0.0000  0.0000  0.0000  0.0000  0.0000  0.0000  0.0000  0.0000  0.0000
  o =  0.6519  v =  0.0000  0.0000  0.0000  0.0000  0.0000  0.0000 -0.2451 -0.0000 -0.9695  0.0000      0.0000  0.0000  0.0000  0.0000  0.0000  0.0000  0.0000  0.0000  0.0000  0.0000
  o =  0.7305  v =  0.0000  0.0000  0.0000  0.0000  0.0000  1.0000  0.0000  0.0000  0.0000  0.0000      0.0000  0.0000  0.0000  0.0000  0.0000  0.0000  0.0000  0.0000  0.0000  0.0000
  o =  0.9433  v =  1.0000  0.0000  0.0000  0.0000  0.0000  0.0000  0.0000  0.0000  0.0000  0.0000      0.0000  0.0000  0.0000  0.0000  0.0000  0.0000  0.0000  0.0000  0.0000  0.0000
  o =  0.9909  v =  0.0000 -0.0363 -0.0000 -0.9993 -0.0000  0.0000  0.0000  0.0000  0.0000  0.0000      0.0000  0.0000  0.0000  0.0000  0.0000  0.0000  0.0000  0.0000  0.0000  0.0000
  o =  0.9909  v =  0.0000  0.9993 -0.0000 -0.0363  0.0000  0.0000  0.0000  0.0000  0.0000  0.0000      0.0000  0.0000  0.0000  0.0000  0.0000  0.0000  0.0000  0.0000  0.0000  0.0000
  o =  1.3048  v =  0.0000 -0.0000  0.0000 -0.0000  1.0000  0.0000  0.0000  0.0000  0.0000  0.0000      0.0000  0.0000  0.0000  0.0000  0.0000  0.0000  0.0000  0.0000  0.0000  0.0000
  o =  1.3186  v =  0.0000 -0.0000  1.0000 -0.0000 -0.0000  0.0000  0.0000  0.0000  0.0000  0.0000      0.0000  0.0000  0.0000  0.0000  0.0000  0.0000  0.0000  0.0000  0.0000  0.0000
atom =   9  type =  4  l = 0
 
 onsite density matrix
 
spin component  1
 
  0.8160
 
spin component  2
 
  0.8147
 
 occupancies and eigenvectors
 
  o =  0.8147  v =  0.0000  1.0000      0.0000  0.0000
  o =  0.8160  v =  1.0000  0.0000      0.0000  0.0000
atom =  10  type =  4  l = 0
 
 onsite density matrix
 
spin component  1
 
  0.8192
 
spin component  2
 
  0.8109
 
 occupancies and eigenvectors
 
  o =  0.8109  v =  0.0000  1.0000      0.0000  0.0000
  o =  0.8192  v =  1.0000  0.0000      0.0000  0.0000
atom =  11  type =  4  l = 0
 
 onsite density matrix
 
spin component  1
 
  0.8160
 
spin component  2
 
  0.8147
 
 occupancies and eigenvectors
 
  o =  0.8147  v =  0.0000  1.0000      0.0000  0.0000
  o =  0.8160  v =  1.0000  0.0000      0.0000  0.0000
atom =  12  type =  4  l = 0
 
 onsite density matrix
 
spin component  1
 
  0.8192
 
spin component  2
 
  0.8109
 
 occupancies and eigenvectors
 
  o =  0.8109  v =  0.0000  1.0000      0.0000  0.0000
  o =  0.8192  v =  1.0000  0.0000      0.0000  0.0000
atom =  13  type =  4  l = 0
 
 onsite density matrix
 
spin component  1
 
  0.8158
 
spin component  2
 
  0.8148
 
 occupancies and eigenvectors
 
  o =  0.8148  v =  0.0000  1.0000      0.0000  0.0000
  o =  0.8158  v =  1.0000  0.0000      0.0000  0.0000
atom =  14  type =  4  l = 0
 
 onsite density matrix
 
spin component  1
 
  0.8158
 
spin component  2
 
  0.8148
 
 occupancies and eigenvectors
 
  o =  0.8148  v =  0.0000  1.0000      0.0000  0.0000
  o =  0.8158  v =  1.0000  0.0000      0.0000  0.0000
atom =  15  type =  4  l = 0
 
 onsite density matrix
 
spin component  1
 
  0.8197
 
spin component  2
 
  0.8106
 
 occupancies and eigenvectors
 
  o =  0.8106  v =  0.0000  1.0000      0.0000  0.0000
[...]
 -0.002   0.002   0.000  -0.028   0.000   0.000   0.010   0.000  -0.009  -0.000   0.001   0.000   0.000   0.004   0.000  -0.001
  0.000   0.000   0.002   0.000   0.017  -0.001   0.000  -0.006  -0.000   0.005   0.000  -0.017   0.000   0.000  -0.002   0.000
  0.000  -0.000   0.000   0.000   0.000   0.000   0.000   0.000   0.000   0.000   0.000   0.000  -0.029   0.000   0.000   0.000
 -0.000   0.000   0.005   0.000  -0.022   0.000  -0.000   0.008  -0.000  -0.007  -0.000  -0.015   0.000   0.000   0.003   0.000
  0.000   0.000  -0.030   0.000   0.006   0.011  -0.000  -0.000  -0.000  -0.021   0.000  -0.009   0.000   0.000   0.009   0.000
 -0.000  -0.011  -0.000   0.004  -0.000  -0.000   0.002  -0.000  -0.014   0.000   0.001   0.000  -0.000   0.005   0.000  -0.000
  0.000   0.000  -0.023   0.000  -0.002   0.008   0.000   0.001   0.000   0.023  -0.000  -0.006   0.000   0.000  -0.010  -0.000
  0.002  -0.002   0.000   0.038   0.000   0.000  -0.014   0.000   0.012  -0.000  -0.002   0.000   0.000  -0.006   0.000   0.001
  0.000   0.000  -0.002   0.000  -0.023   0.001   0.000   0.008   0.000  -0.006  -0.000   0.023   0.000  -0.000   0.003  -0.000
  0.000   0.000   0.000   0.000  -0.000  -0.000   0.000  -0.000   0.000   0.000  -0.000   0.000   0.041  -0.000  -0.000   0.000
  0.000  -0.000  -0.006  -0.000   0.030   0.000   0.000  -0.011   0.000   0.009   0.000   0.021   0.000  -0.000  -0.004  -0.000
 total augmentation occupancy for first ion, spin component:           2
  0.000   0.000   0.000   0.000   0.000   0.000   0.000   0.000  -0.000  -0.000  -0.000  -0.000   0.000   0.000  -0.000   0.000
  0.000   0.003   0.000   0.001  -0.000   0.000  -0.000   0.000  -0.000   0.000  -0.000   0.000   0.000   0.001   0.000   0.000
 -0.000   0.000   0.000   0.000  -0.000  -0.000   0.000   0.000  -0.000   0.000   0.000  -0.000   0.000   0.000  -0.000  -0.000
  0.000   0.001   0.000   0.000  -0.000   0.000  -0.000   0.000  -0.000   0.000   0.001   0.000   0.000  -0.000  -0.000  -0.000
  0.000   0.000  -0.000  -0.000   0.000   0.000   0.000  -0.000   0.000  -0.000   0.000   0.000  -0.000   0.000  -0.000   0.000
  0.000   0.000  -0.000   0.000   0.000   0.000  -0.000  -0.000  -0.000   0.000   0.000   0.001   0.000   0.000  -0.000  -0.000
  0.000  -0.000   0.000  -0.000   0.000   0.000   0.000   0.000   0.001   0.000  -0.001   0.000   0.000  -0.000   0.000   0.000
  0.000   0.000   0.000   0.000  -0.000  -0.000  -0.000   0.000  -0.000   0.001   0.000   0.000   0.000   0.000  -0.000   0.000
 -0.000  -0.000  -0.000  -0.000   0.000  -0.000   0.001  -0.000   0.003  -0.000  -0.006  -0.000   0.000  -0.001  -0.000   0.002
  0.000  -0.000   0.000   0.000  -0.000   0.000   0.000   0.001  -0.000   0.002   0.000  -0.007   0.000   0.000  -0.000  -0.000
 -0.000  -0.000   0.000   0.001   0.000   0.000  -0.001   0.000  -0.006   0.000   0.017   0.000   0.000   0.002   0.000  -0.007
  0.000   0.000  -0.000   0.000   0.000   0.001   0.000   0.000  -0.000  -0.007   0.000   0.002   0.000   0.000   0.003   0.000
  0.000  -0.000   0.000   0.000  -0.000   0.000  -0.000  -0.000   0.000   0.000   0.000   0.000   0.016   0.000  -0.000   0.000
  0.000   0.001   0.000  -0.000   0.000  -0.000  -0.000  -0.000  -0.001   0.000   0.002   0.000   0.000   0.000  -0.000  -0.001
  0.000   0.000  -0.000  -0.000  -0.000  -0.000   0.000  -0.000  -0.000  -0.000   0.000   0.003  -0.000  -0.000  -0.000  -0.000
  0.000   0.000  -0.000  -0.000   0.000   0.000   0.000   0.000   0.002  -0.000  -0.007   0.000   0.000  -0.001  -0.000   0.003
  0.000   0.000  -0.000   0.000  -0.000  -0.000   0.000  -0.000   0.000   0.003   0.000  -0.000  -0.000  -0.000  -0.001   0.000
 -0.000   0.000  -0.000   0.000  -0.000   0.000  -0.000   0.000   0.000   0.000  -0.000   0.000  -0.006   0.000  -0.000   0.000
  0.000   0.000   0.000  -0.000  -0.000   0.000   0.000   0.000   0.000  -0.003   0.000  -0.000   0.000  -0.000   0.001  -0.000
  0.000  -0.005   0.000  -0.000   0.000   0.000   0.001   0.000  -0.004  -0.000  -0.000  -0.000   0.000   0.001  -0.000   0.000
 -0.000  -0.000   0.000  -0.000  -0.000   0.000  -0.000   0.000   0.000  -0.001  -0.000  -0.000   0.000  -0.000   0.000  -0.000
  0.000   0.002   0.000  -0.000   0.000   0.000  -0.000   0.000   0.000  -0.000   0.001   0.000   0.000  -0.000   0.000  -0.000
  0.000   0.000  -0.000  -0.000   0.000   0.000  -0.000   0.000   0.000  -0.000  -0.000  -0.001  -0.000  -0.000   0.000   0.000
 -0.000  -0.000   0.000   0.000  -0.000   0.000  -0.000   0.000   0.000  -0.000   0.000   0.000   0.003  -0.000   0.000   0.000
 -0.000  -0.000   0.000   0.000  -0.000  -0.000   0.000  -0.000   0.000   0.000  -0.000   0.003   0.000   0.000  -0.000   0.000
  0.000   0.000   0.000  -0.000   0.000  -0.000   0.000  -0.000   0.000   0.004   0.000  -0.000   0.000   0.000  -0.002   0.000
 -0.000   0.007   0.000   0.001   0.000   0.000  -0.001   0.000   0.006   0.000   0.000   0.000  -0.000  -0.002   0.000  -0.000
 -0.000   0.000   0.000   0.000   0.000  -0.000   0.000  -0.000   0.000   0.001  -0.000   0.000   0.000  -0.000  -0.000   0.000
  0.000  -0.003  -0.000  -0.000   0.000   0.000   0.000   0.000   0.000   0.000  -0.003   0.000  -0.000   0.000   0.000   0.001
 -0.000  -0.000   0.000   0.000   0.000  -0.000   0.000  -0.000   0.000   0.000  -0.000   0.001  -0.000   0.000  -0.000  -0.000
 -0.000   0.000   0.000   0.000  -0.000   0.000   0.000  -0.000   0.000  -0.000   0.000   0.000  -0.005  -0.000   0.000  -0.000
 -0.000   0.000  -0.000  -0.000  -0.000   0.000   0.000   0.000  -0.000   0.000   0.000  -0.004  -0.000   0.000   0.000   0.000


------------------------ aborting loop because EDIFF is reached ----------------------------------------


 


 total charge     
 
# of ion       s       p       d       f       tot
--------------------------------------------------
    1        2.000   5.702   0.495   0.194   8.390
    2        2.000   5.701   0.498   0.192   8.391
    3        2.000   5.702   0.495   0.194   8.390
    4        2.000   5.701   0.498   0.192   8.391
    5        0.363   0.586   4.865   0.000   5.815
    6        0.442   0.686   8.305   0.000   9.433
    7        0.411   0.607   8.328   0.000   9.345
    8        0.393   0.577   8.320   0.000   9.290
    9        1.562   3.461   0.000   0.000   5.023
   10        1.561   3.435   0.000   0.000   4.996
   11        1.562   3.461   0.000   0.000   5.023
   12        1.561   3.435   0.000   0.000   4.996
   13        1.562   3.469   0.000   0.000   5.030
   14        1.562   3.469   0.000   0.000   5.030
   15        1.563   3.441   0.000   0.000   5.003
   16        1.563   3.441   0.000   0.000   5.003
   17        1.561   3.455   0.000   0.000   5.016
   18        1.561   3.455   0.000   0.000   5.016
   19        1.562   3.430   0.000   0.000   4.992
   20        1.562   3.430   0.000   0.000   4.992
--------------------------------------------------
tot         28.350  66.641  31.802   0.772 127.565

 


 magnetization (x)
 
# of ion       s       p       d       f       tot
--------------------------------------------------
    1        0.001   0.000   0.006   0.003   0.009
    2        0.000   0.001   0.006   0.002   0.009
    3        0.001   0.000   0.006   0.003   0.009
    4        0.000   0.001   0.006   0.002   0.009
    5        0.025   0.035   3.166   0.000   3.226
    6        0.017   0.018   1.149   0.000   1.184
    7        0.011   0.001   1.515   0.000   1.527
    8        0.005  -0.002   1.602   0.000   1.605
    9        0.004  -0.034   0.000   0.000  -0.029
   10        0.006  -0.074   0.000   0.000  -0.068
   11        0.004  -0.034   0.000   0.000  -0.029
   12        0.006  -0.074   0.000   0.000  -0.068
   13        0.005  -0.017   0.000   0.000  -0.012
   14        0.005  -0.017   0.000   0.000  -0.012
   15        0.006  -0.087   0.000   0.000  -0.081
   16        0.006  -0.087   0.000   0.000  -0.081
   17        0.003  -0.020   0.000   0.000  -0.017
   18        0.003  -0.020   0.000   0.000  -0.017
   19        0.004  -0.082   0.000   0.000  -0.078
   20        0.004  -0.082   0.000   0.000  -0.078
--------------------------------------------------
tot          0.117  -0.576   7.457   0.010   7.008

 
    CHARGE:  cpu time    0.0992: real time    0.0994
    FORLOC:  cpu time    0.0057: real time    0.0057
    FORNL :  cpu time    0.5276: real time    0.5296
    STRESS:  cpu time    1.5932: real time    1.5991
    FORCOR:  cpu time    0.0572: real time    0.0574
    FORHAR:  cpu time    0.0110: real time    0.0110
    MIXING:  cpu time    0.0033: real time    0.0033
    OFIELD:  cpu time    0.0001: real time    0.0002

  FORCE on cell =-STRESS in cart. coord.  units (eV):
  Direction    XX          YY          ZZ          XY          YZ          ZX
  --------------------------------------------------------------------------------------
  Alpha Z   662.61239   662.61239   662.61239
  Ewald   -3588.57528 -3588.57528 -3621.50797    -0.00000    -0.00000    -0.00000
  Hartree   853.90505   853.90505   826.11602    -0.00000    -0.00000     0.00000
  E(xc)    -718.13593  -718.13593  -718.11019     0.00000     0.00000    -0.00000
  Local    -548.64388  -548.64388  -488.04177     0.00000     0.00000    -0.00000
  n-local   290.39270   290.22658   290.47021    -1.80780    -0.05409     0.11867
  augment   471.44985   471.44985   471.36886    -0.00000    -0.00000    -0.00000
  Kinetic  2575.50119  2578.60190  2576.80095    -6.60188     0.65612    -0.00895
  Fock        0.00000     0.00000     0.00000     0.00000     0.00000     0.00000
  -------------------------------------------------------------------------------------
  Total      -0.02661    -0.02661    -0.29148    -0.00000     0.00000    -0.00000
  in kB      -0.18552    -0.18552    -2.03198    -0.00000     0.00000    -0.00000
  external pressure =       -0.80 kB  Pullay stress =        0.00 kB


 VOLUME and BASIS-vectors are now :
 -----------------------------------------------------------------------------
  energy-cutoff  :      520.00
  volume of cell :      229.83
      direct lattice vectors                 reciprocal lattice vectors
     3.856919451  3.856919451  0.000000000     0.129637138  0.129637138  0.000000000
     3.856919451 -3.856919451  0.000000000     0.129637138 -0.129637138  0.000000000
     0.000000000  0.000000000 -7.724849525     0.000000000  0.000000000 -0.129452360

  length of vectors
     5.454507797  5.454507797  7.724849525     0.183334599  0.183334599  0.129452360


 FORCES acting on ions
    electron-ion (+dipol)            ewald-force                    non-local-force                 convergence-correction
 -----------------------------------------------------------------------------------------------
   0.129E-11 -.131E-11 0.540E+02   0.799E-14 -.497E-13 -.537E+02   -.325E-18 0.108E-18 -.199E+00   0.336E-13 0.693E-14 0.545E-02
   -.116E-12 0.751E-13 -.540E+02   0.000E+00 0.284E-13 0.537E+02   -.325E-18 0.217E-18 0.199E+00   0.169E-13 -.621E-14 -.545E-02
   0.772E-12 -.808E-12 -.540E+02   -.313E-13 -.355E-13 0.537E+02   0.000E+00 -.217E-18 0.199E+00   0.271E-13 0.370E-15 -.545E-02
   0.482E-13 -.981E-13 0.540E+02   0.885E-14 0.142E-13 -.537E+02   -.108E-18 -.108E-18 -.199E+00   0.812E-14 -.127E-13 0.545E-02
   0.132E-12 -.123E-12 -.473E-13   0.835E-13 0.867E-13 0.512E-13   0.000E+00 -.169E-20 0.339E-20   -.231E-13 -.103E-13 0.194E-13
   0.734E-12 0.700E-12 0.473E-11   0.114E-12 0.292E-13 0.196E-13   0.000E+00 -.424E-21 0.000E+00   -.239E-13 0.152E-13 -.145E-12
   0.777E-12 -.749E-12 -.959E-12   -.853E-13 -.222E-15 0.147E-13   0.000E+00 0.000E+00 0.424E-21   -.570E-13 -.278E-13 -.120E-12
   0.742E-12 0.703E-12 0.241E-11   0.119E-12 0.455E-14 -.211E-13   0.529E-22 -.265E-21 0.339E-20   -.408E-13 0.925E-14 0.189E-13
   0.311E-12 -.292E-12 -.559E+02   0.000E+00 0.572E-14 0.516E+02   -.434E-18 0.000E+00 0.431E+01   -.103E-13 -.143E-13 -.193E-01
   0.183E-12 0.173E-12 -.380E+02   -.426E-13 -.678E-14 0.401E+02   -.217E-18 -.217E-18 -.230E+01   -.139E-13 0.427E-15 0.566E-02
   -.245E-13 0.399E-13 0.559E+02   0.284E-13 0.122E-13 -.516E+02   0.217E-18 0.217E-18 -.431E+01   -.314E-13 -.215E-13 0.193E-01
   0.179E-12 0.176E-12 0.380E+02   0.000E+00 -.698E-14 -.401E+02   0.651E-18 0.651E-18 0.230E+01   -.355E-14 0.850E-14 -.566E-02
   0.120E-11 -.355E+02 -.742E-11   0.736E-14 0.308E+02 0.588E-14   0.000E+00 0.477E+01 0.000E+00   -.805E-15 -.180E-01 0.396E-13
   0.107E-13 0.355E+02 -.330E-12   -.114E-13 -.308E+02 0.414E-13   0.000E+00 -.477E+01 0.000E+00   -.344E-13 0.180E-01 0.240E-13
   0.212E-11 -.121E+02 -.595E-11   0.677E-14 0.131E+02 0.154E-13   -.347E-17 -.121E+01 -.217E-18   -.321E-13 0.760E-02 -.718E-13
   0.240E-12 0.121E+02 0.551E-12   -.270E-13 -.131E+02 0.830E-14   0.347E-17 0.121E+01 0.217E-18   -.717E-14 -.760E-02 -.747E-13
   -.355E+02 0.210E-11 -.217E-05   0.308E+02 0.152E-13 0.352E-13   0.477E+01 0.000E+00 0.000E+00   -.180E-01 -.149E-14 0.268E-13
   0.355E+02 -.441E-12 0.217E-05   -.308E+02 0.117E-13 0.192E-13   -.477E+01 0.000E+00 0.000E+00   0.180E-01 -.156E-13 0.220E-13
   -.121E+02 -.257E-12 0.152E-05   0.131E+02 0.394E-13 0.240E-14   -.121E+01 -.694E-17 0.000E+00   0.760E-02 -.162E-13 -.811E-13
   0.121E+02 -.510E-12 -.152E-05   -.131E+02 -.188E-13 0.717E-14   0.121E+01 0.000E+00 0.000E+00   -.760E-02 0.759E-14 -.841E-13
 -----------------------------------------------------------------------------------------------
   0.103E-10 0.305E-12 -.118E-10   -.533E-14 0.191E-13 -.639E-13   0.888E-15 -.694E-17 0.000E+00   -.937E-13 -.114E-12 -.317E-12
 
 
 POSITION                                       TOTAL-FORCE (eV/Angst)
 -----------------------------------------------------------------------------------
      3.85692      0.00000     -7.70255         0.000000     -0.000000      0.053602
      0.00000      0.00000     -3.88473        -0.000000     -0.000000     -0.053602
      3.85692      0.00000     -3.88473         0.000000     -0.000000     -0.053602
      0.00000      0.00000     -7.70255        -0.000000     -0.000000      0.053602
      1.92846     -1.92846     -1.93121        -0.000000     -0.000000      0.000000
      1.92846      1.92846     -5.79364        -0.000000     -0.000000     -0.000000
      1.92846     -1.92846     -5.79364        -0.000000     -0.000000      0.000000
      1.92846      1.92846     -1.93121         0.000000     -0.000000      0.000000
      1.92846     -1.92846     -3.83408         0.000000     -0.000000     -0.001191
      1.92846      1.92846     -3.88745         0.000000     -0.000000     -0.172513
      1.92846     -1.92846     -0.02834        -0.000000     -0.000000      0.001191
      1.92846      1.92846     -7.69982         0.000000     -0.000000      0.172513
      5.78538      0.03311     -1.93121         0.000000     -0.003063      0.000000
      1.92846     -0.03311     -1.93121         0.000000      0.003063     -0.000000
      5.78538     -0.00863     -5.79364         0.000000     -0.228679     -0.000000
      1.92846      0.00863     -5.79364         0.000000      0.228679      0.000000
      3.89003      1.92846     -1.93121        -0.003063     -0.000000     -0.000000
      3.82381     -1.92846     -1.93121         0.003063     -0.000000      0.000000
      3.84829      1.92846     -5.79364        -0.228679     -0.000000      0.000000
      3.86555     -1.92846     -5.79364         0.228679     -0.000000      0.000000
 -----------------------------------------------------------------------------------
    total drift:                                0.000000      0.000000     -0.000000


--------------------------------------------------------------------------------------------------------



  FREE ENERGIE OF THE ION-ELECTRON SYSTEM (eV)
  ---------------------------------------------------
  free  energy   TOTEN  =      -140.34903613 eV

  energy  without entropy=     -140.34903613  energy(sigma->0) =     -140.34903613
 


--------------------------------------------------------------------------------------------------------


    POTLOK:  cpu time    0.0620: real time    0.0622


--------------------------------------------------------------------------------------------------------


     LOOP+:  cpu time   44.8307: real time   45.0226
    4ORBIT:  cpu time    0.0000: real time    0.0000
 


 total charge     
 
# of ion       s       p       d       f       tot
--------------------------------------------------
    1        2.000   5.702   0.495   0.194   8.390
    2        2.000   5.701   0.498   0.192   8.391
    3        2.000   5.702   0.495   0.194   8.390
    4        2.000   5.701   0.498   0.192   8.391
    5        0.363   0.586   4.865   0.000   5.815
    6        0.442   0.686   8.305   0.000   9.433
    7        0.411   0.607   8.328   0.000   9.345
    8        0.393   0.577   8.320   0.000   9.290
    9        1.562   3.461   0.000   0.000   5.023
   10        1.561   3.435   0.000   0.000   4.996
   11        1.562   3.461   0.000   0.000   5.023
   12        1.561   3.435   0.000   0.000   4.996
   13        1.562   3.469   0.000   0.000   5.030
   14        1.562   3.469   0.000   0.000   5.030
   15        1.563   3.441   0.000   0.000   5.003
   16        1.563   3.441   0.000   0.000   5.003
   17        1.561   3.455   0.000   0.000   5.016
   18        1.561   3.455   0.000   0.000   5.016
   19        1.562   3.430   0.000   0.000   4.992
   20        1.562   3.430   0.000   0.000   4.992
--------------------------------------------------
tot         28.350  66.641  31.802   0.772 127.565

 


 magnetization (x)
 
# of ion       s       p       d       f       tot
--------------------------------------------------
    1        0.001   0.000   0.006   0.003   0.009
    2        0.000   0.001   0.006   0.002   0.009
    3        0.001   0.000   0.006   0.003   0.009
    4        0.000   0.001   0.006   0.002   0.009
    5        0.025   0.035   3.166   0.000   3.226
    6        0.017   0.018   1.149   0.000   1.184
    7        0.011   0.001   1.515   0.000   1.527
    8        0.005  -0.002   1.602   0.000   1.605
    9        0.004  -0.034   0.000   0.000  -0.029
   10        0.006  -0.074   0.000   0.000  -0.068
   11        0.004  -0.034   0.000   0.000  -0.029
   12        0.006  -0.074   0.000   0.000  -0.068
   13        0.005  -0.017   0.000   0.000  -0.012
   14        0.005  -0.017   0.000   0.000  -0.012
   15        0.006  -0.087   0.000   0.000  -0.081
   16        0.006  -0.087   0.000   0.000  -0.081
   17        0.003  -0.020   0.000   0.000  -0.017
   18        0.003  -0.020   0.000   0.000  -0.017
   19        0.004  -0.082   0.000   0.000  -0.078
   20        0.004  -0.082   0.000   0.000  -0.078
--------------------------------------------------
tot          0.117  -0.576   7.457   0.010   7.008

 
 BZINTS: Fermi energy:  7.456128;153.000000 electrons
         Band energy:-178.275507;  BLOECHL correction: -0.024334

 total amount of memory used by VASP MPI-rank0    55533. kBytes
=======================================================================

   base      :      30000. kBytes
   nonlr-proj:       4816. kBytes
   fftplans  :       2032. kBytes
   grid      :       5920. kBytes
   one-center:        196. kBytes
   wavefun   :      12569. kBytes
 
  
  
 General timing and accounting informations for this job:
 ========================================================
  
                  Total CPU time used (sec):       50.104
                            User time (sec):       48.314
                          System time (sec):        1.790
                         Elapsed time (sec):       50.401
  
                   Maximum memory used (kb):       93032.
                   Average memory used (kb):           0.
  
                          Minor page faults:        34128
                          Major page faults:            0
                 Voluntary context switches:         1322
