       N       E                     dE             d eps       ncg     rms          rms(c)
DAV:   1     0.361077626302E+04    0.36108E+04   -0.81357E+04  5656   0.252E+03
DAV:   2     0.125194296921E+04   -0.23588E+04   -0.21366E+04  5856   0.643E+02
DAV:   3     0.269508044728E+03   -0.98243E+03   -0.87256E+03  5792   0.322E+02
DAV:   4    -0.149718022084E+03   -0.41923E+03   -0.39628E+03  8332   0.176E+02
DAV:   5    -0.237825198168E+03   -0.88107E+02   -0.85008E+02  9980   0.957E+01    0.893E+01
RMM:   6    -0.210531755542E+03    0.27293E+02   -0.71102E+02  9125   0.111E+02    0.109E+02
RMM:   7    -0.208990309879E+03    0.15414E+01   -0.13926E+02  9057   0.343E+01    0.554E+01
RMM:   8    -0.205111713469E+03    0.38786E+01   -0.56158E+01  8211   0.338E+01    0.351E+01
RMM:   9    -0.206365407539E+03   -0.12537E+01   -0.27958E+01  7723   0.178E+01    0.238E+01
RMM:  10    -0.205873113060E+03    0.49229E+00   -0.57119E+00  8871   0.811E+00    0.115E+01
RMM:  11    -0.205847415302E+03    0.25698E-01   -0.27355E+00  9288   0.488E+00    0.905E+00
RMM:  12    -0.206142820415E+03   -0.29541E+00   -0.12023E+00  9208   0.356E+00    0.634E+00
RMM:  13    -0.206466417011E+03   -0.32360E+00   -0.12053E+00  9013   0.326E+00    0.510E+00
RMM:  14    -0.206628220568E+03   -0.16180E+00   -0.40502E-01  8793   0.193E+00    0.322E+00
RMM:  15    -0.206708827052E+03   -0.80606E-01   -0.20156E-01  8494   0.147E+00    0.190E+00
RMM:  16    -0.206737598123E+03   -0.28771E-01   -0.96329E-02  8246   0.866E-01    0.124E+00
RMM:  17    -0.206751447993E+03   -0.13850E-01   -0.61130E-02  7978   0.698E-01    0.656E-01
RMM:  18    -0.206762587126E+03   -0.11139E-01   -0.31400E-02  7497   0.548E-01    0.345E-01
RMM:  19    -0.206768082238E+03   -0.54951E-02   -0.20406E-02  6553   0.441E-01    0.241E-01
RMM:  20    -0.206769644236E+03   -0.15620E-02   -0.92333E-03  5410   0.361E-01    0.173E-01
RMM:  21    -0.206770231694E+03   -0.58746E-03   -0.67615E-03  5057   0.326E-01
   1 F= -.20677023E+03 E0= -.20677023E+03  d E =0.000000E+00  mag=     9.0206
