 vasp.5.4.4.18Apr17-6-g9f103f2a35 (build Oct 03 2018 13:58:34) complex          
  
 executed on             LinuxIFC date 2019.06.04  01:19:12
 running on   40 total cores
 distrk:  each k-point on   20 cores,    2 groups
 distr:  one band on NCORES_PER_BAND=  10 cores,    2 groups


--------------------------------------------------------------------------------------------------------


 INCAR:
 POTCAR:    PAW_PBE La 06Sep2000                  
 POTCAR:    PAW_PBE Mn 06Sep2000                  
 POTCAR:    PAW_PBE Ni 02Aug2007                  
 POTCAR:    PAW_PBE O 08Apr2002                   

 ----------------------------------------------------------------------------- 
|                                                                             |
|           W    W    AA    RRRRR   N    N  II  N    N   GGGG   !!!           |
|           W    W   A  A   R    R  NN   N  II  NN   N  G    G  !!!           |
|           W    W  A    A  R    R  N N  N  II  N N  N  G       !!!           |
|           W WW W  AAAAAA  RRRRR   N  N N  II  N  N N  G  GGG   !            |
|           WW  WW  A    A  R   R   N   NN  II  N   NN  G    G                |
|           W    W  A    A  R    R  N    N  II  N    N   GGGG   !!!           |
|                                                                             |
|      You have enabled k-point parallelism (KPAR>1).                         |
|      This developmental code was originally  written by Paul Kent at ORNL,  |
|      and carefully double checked in Vienna.                                |
|      GW as well as linear response parallelism added by Martijn Marsman     |
|      and Georg Kresse.                                                      |
|      Carefully verify results versus KPAR=1.                                |
|      Report problems to Paul Kent and Vienna.                               |
|                                                                             |
 ----------------------------------------------------------------------------- 

 POTCAR:    PAW_PBE La 06Sep2000                  
   VRHFIN =La : [core=Kr4d]                                                     
   LEXCH  = PE                                                                  
   EATOM  =   865.9763 eV,   63.6475 Ry                                         
                                                                                
   TITEL  = PAW_PBE La 06Sep2000                                                
   LULTRA =        F    use ultrasoft PP ?                                      
   IUNSCR =        1    unscreen: 0-lin 1-nonlin 2-no                           
   RPACOR =    2.300    partial core radius                                     
   POMASS =  138.900; ZVAL   =   11.000    mass and valenz                      
   RCORE  =    2.800    outmost cutoff radius                                   
   RWIGS  =    2.900; RWIGS  =    1.535    wigner-seitz radius (au A)           
   ENMAX  =  219.292; ENMIN  =  164.469 eV                                      
   RCLOC  =    1.601    cutoff for local pot                                    
   LCOR   =        T    correct aug charges                                     
   LPAW   =        T    paw PP                                                  
   EAUG   =  583.575                                                            
   DEXC   =    0.000                                                            
   RMAX   =    2.853    core radius for proj-oper                               
   RAUG   =    1.300    factor for augmentation sphere                          
   RDEP   =    2.802    radius for radial grids                                 
   RDEPT  =    2.156    core radius for aug-charge                              
                                                                                
   Atomic configuration                                                         
   14 entries                                                                   
     n  l   j            E        occ.                                          
     1  0  0.50    -38741.0879   2.0000                                         
     2  0  0.50     -6166.6801   2.0000                                         
     2  1  1.50     -5526.1593   6.0000                                         
     3  0  0.50     -1319.0200   2.0000                                         
     3  1  1.50     -1114.5963   6.0000                                         
     3  2  2.50      -821.1793  10.0000                                         
     4  0  0.50      -266.3851   2.0000                                         
     4  1  1.50      -199.9276   6.0000                                         
     4  2  2.50      -103.8239  10.0000                                         
     5  0  0.50       -38.9172   2.0000                                         
     6  0  0.50        -3.6792   2.0000                                         
     5  1  1.50       -22.3948   6.0000                                         
     5  2  2.50        -3.0911   0.9999                                         
     4  3  2.50        -4.3603   0.0001                                         
   Description                                                                  
     l       E           TYP  RCUT    TYP  RCUT                                 
     0    -38.9171645     23  2.800                                             
     0     -3.6792381     23  2.800                                             
     1    -22.3948300     23  2.500                                             
     1     27.2116520     23  2.500                                             
     2     -3.0910934     23  2.500                                             
     2      1.0119135     23  2.500                                             
     3     -4.3602911     23  2.800                                             
     3     -5.7208737     23  2.800                                             
  local pseudopotential read in
  partial core-charges read in
  partial kinetic energy density read in
  atomic valenz-charges read in
  non local Contribution for L=           0  read in
    real space projection operators read in
  non local Contribution for L=           0  read in
    real space projection operators read in
  non local Contribution for L=           1  read in
    real space projection operators read in
  non local Contribution for L=           1  read in
    real space projection operators read in
  non local Contribution for L=           2  read in
    real space projection operators read in
  non local Contribution for L=           2  read in
    real space projection operators read in
  non local Contribution for L=           3  read in
    real space projection operators read in
  non local Contribution for L=           3  read in
    real space projection operators read in
    PAW grid and wavefunctions read in
 
   number of l-projection  operators is LMAX  =           8
   number of lm-projection operators is LMMAX =          32
 
 POTCAR:    PAW_PBE Mn 06Sep2000                  
   VRHFIN =Mn: d6 s1                                                            
   LEXCH  = PE                                                                  
   EATOM  =   416.7541 eV,   30.6306 Ry                                         
                                                                                
   TITEL  = PAW_PBE Mn 06Sep2000                                                
   LULTRA =        F    use ultrasoft PP ?                                      
   IUNSCR =        1    unscreen: 0-lin 1-nonlin 2-no                           
   RPACOR =    2.000    partial core radius                                     
   POMASS =   54.938; ZVAL   =    7.000    mass and valenz                      
   RCORE  =    2.300    outmost cutoff radius                                   
   RWIGS  =    2.500; RWIGS  =    1.323    wigner-seitz radius (au A)           
   ENMAX  =  269.864; ENMIN  =  202.398 eV                                      
   RCLOC  =    1.725    cutoff for local pot                                    
   LCOR   =        T    correct aug charges                                     
   LPAW   =        T    paw PP                                                  
   EAUG   =  500.711                                                            
   DEXC   =    0.000                                                            
   RMAX   =    2.343    core radius for proj-oper                               
   RAUG   =    1.300    factor for augmentation sphere                          
   RDEP   =    2.338    radius for radial grids                                 
   RDEPT  =    1.911    core radius for aug-charge                              
                                                                                
   Atomic configuration                                                         
    9 entries                                                                   
     n  l   j            E        occ.                                          
     1  0  0.50     -6424.8288   2.0000                                         
     2  0  0.50      -739.1154   2.0000                                         
     2  1  1.50      -625.3949   6.0000                                         
     3  0  0.50       -81.6100   2.0000                                         
     3  1  1.50       -50.4667   6.0000                                         
     3  2  2.50        -3.3745   6.0000                                         
     4  0  0.50        -4.1331   1.0000                                         
     4  1  0.50        -4.0817   0.0000                                         
     4  3  2.50        -1.3606   0.0000                                         
   Description                                                                  
     l       E           TYP  RCUT    TYP  RCUT                                 
     2     -3.3744664     23  2.300                                             
     2     -4.7350490     23  2.300                                             
     0     -4.1331408     23  2.300                                             
     0      7.6656614     23  2.300                                             
     1     -2.7211652     23  2.300                                             
     1     20.4087390     23  2.300                                             
  local pseudopotential read in
  partial core-charges read in
  partial kinetic energy density read in
  atomic valenz-charges read in
  non local Contribution for L=           2  read in
    real space projection operators read in
  non local Contribution for L=           2  read in
    real space projection operators read in
  non local Contribution for L=           0  read in
    real space projection operators read in
  non local Contribution for L=           0  read in
    real space projection operators read in
  non local Contribution for L=           1  read in
    real space projection operators read in
  non local Contribution for L=           1  read in
    real space projection operators read in
    PAW grid and wavefunctions read in
 
   number of l-projection  operators is LMAX  =           6
   number of lm-projection operators is LMMAX =          18
 
 POTCAR:    PAW_PBE Ni 02Aug2007                  
   VRHFIN =Ni:                                                                  
   LEXCH  = PE                                                                  
   EATOM  =  1077.6739 eV,   79.2068 Ry                                         
                                                                                
   TITEL  = PAW_PBE Ni 02Aug2007                                                
   LULTRA =        F    use ultrasoft PP ?                                      
   IUNSCR =        1    unscreen: 0-lin 1-nonlin 2-no                           
   RPACOR =    2.000    partial core radius                                     
   POMASS =   58.690; ZVAL   =   10.000    mass and valenz                      
   RCORE  =    2.300    outmost cutoff radius                                   
   RWIGS  =    2.430; RWIGS  =    1.286    wigner-seitz radius (au A)           
   ENMAX  =  269.532; ENMIN  =  202.149 eV                                      
   RCLOC  =    1.201    cutoff for local pot                                    
   LCOR   =        T    correct aug charges                                     
   LPAW   =        T    paw PP                                                  
   EAUG   =  544.565                                                            
   DEXC   =    0.000                                                            
   RMAX   =    2.357    core radius for proj-oper                               
   RAUG   =    1.300    factor for augmentation sphere                          
   RDEP   =    2.390    radius for radial grids                                 
   RDEPT  =    1.838    core radius for aug-charge                              
                                                                                
   Atomic configuration                                                         
    9 entries                                                                   
     n  l   j            E        occ.                                          
     1  0  0.50     -8206.4253   2.0000                                         
     2  0  0.50      -976.1748   2.0000                                         
     2  1  1.50      -839.0571   6.0000                                         
     3  0  0.50      -105.9991   2.0000                                         
     3  1  1.50       -66.4603   6.0000                                         
     3  2  2.50        -4.6458   9.0000                                         
     4  0  0.50        -4.4926   1.0000                                         
     4  1  1.50        -4.0817   0.0000                                         
     4  3  2.50        -1.3606   0.0000                                         
   Description                                                                  
     l       E           TYP  RCUT    TYP  RCUT                                 
     2     -4.6457903     23  2.300                                             
     2     -6.0063729     23  2.300                                             
     0     -4.4925590     23  2.300                                             
     0      5.0102601     23  2.300                                             
     1     -2.7211652     23  2.300                                             
     1     16.5183231     23  2.300                                             
  local pseudopotential read in
  partial core-charges read in
  partial kinetic energy density read in
  atomic valenz-charges read in
  non local Contribution for L=           2  read in
    real space projection operators read in
  non local Contribution for L=           2  read in
    real space projection operators read in
  non local Contribution for L=           0  read in
    real space projection operators read in
  non local Contribution for L=           0  read in
    real space projection operators read in
  non local Contribution for L=           1  read in
    real space projection operators read in
  non local Contribution for L=           1  read in
    real space projection operators read in
    PAW grid and wavefunctions read in
 
   number of l-projection  operators is LMAX  =           6
   number of lm-projection operators is LMMAX =          18
 
 POTCAR:    PAW_PBE O 08Apr2002                   
   VRHFIN =O: s2p4                                                              
   LEXCH  = PE                                                                  
   EATOM  =   432.3788 eV,   31.7789 Ry                                         
                                                                                
   TITEL  = PAW_PBE O 08Apr2002                                                 
   LULTRA =        F    use ultrasoft PP ?                                      
   IUNSCR =        1    unscreen: 0-lin 1-nonlin 2-no                           
   RPACOR =    1.200    partial core radius                                     
   POMASS =   16.000; ZVAL   =    6.000    mass and valenz                      
   RCORE  =    1.520    outmost cutoff radius                                   
   RWIGS  =    1.550; RWIGS  =    0.820    wigner-seitz radius (au A)           
   ENMAX  =  400.000; ENMIN  =  300.000 eV                                      
   ICORE  =        2    local potential                                         
   LCOR   =        T    correct aug charges                                     
   LPAW   =        T    paw PP                                                  
   EAUG   =  605.392                                                            
   DEXC   =    0.000                                                            
   RMAX   =    1.553    core radius for proj-oper                               
   RAUG   =    1.300    factor for augmentation sphere                          
   RDEP   =    1.550    radius for radial grids                                 
   RDEPT  =    1.329    core radius for aug-charge                              
                                                                                
   Atomic configuration                                                         
    4 entries                                                                   
     n  l   j            E        occ.                                          
     1  0  0.50      -514.6923   2.0000                                         
     2  0  0.50       -23.9615   2.0000                                         
     2  1  0.50        -9.0305   4.0000                                         
     3  2  1.50        -9.5241   0.0000                                         
   Description                                                                  
     l       E           TYP  RCUT    TYP  RCUT                                 
     0    -23.9615318     23  1.200                                             
     0     -9.5240782     23  1.200                                             
     1     -9.0304911     23  1.520                                             
     1      8.1634956     23  1.520                                             
     2     -9.5240782      7  1.500                                             
  local pseudopotential read in
  partial core-charges read in
  partial kinetic energy density read in
  kinetic energy density of atom read in
  atomic valenz-charges read in
  non local Contribution for L=           0  read in
    real space projection operators read in
  non local Contribution for L=           0  read in
    real space projection operators read in
  non local Contribution for L=           1  read in
    real space projection operators read in
  non local Contribution for L=           1  read in
    real space projection operators read in
    PAW grid and wavefunctions read in
 
   number of l-projection  operators is LMAX  =           4
   number of lm-projection operators is LMMAX =           8
 
 Optimization of the real space projectors (new method)

 maximal supplied QI-value         = 13.42
 optimisation between [QCUT,QGAM] = [ 11.67, 23.35] = [ 38.16,152.62] Ry 
 Optimized for a Real-space Cutoff    1.63 Angstroem

   l    n(q)    QCUT    max X(q) W(low)/X(q) W(high)/X(q)  e(spline) 
   0     11    11.673    13.882    0.27E-04    0.79E-05    0.11E-06
   0     11    11.673    12.184    0.39E-04    0.13E-04    0.19E-06
   1     11    11.673     4.523    0.73E-05    0.76E-05    0.12E-06
   1     11    11.673     4.424    0.87E-05    0.13E-04    0.19E-06
   2     10    11.673    52.481    0.65E-04    0.36E-04    0.18E-06
   2     10    11.673    38.501    0.61E-04    0.33E-04    0.17E-06
   3     10    11.673    65.631    0.17E-03    0.14E-03    0.37E-06
   3     10    11.673    56.854    0.17E-03    0.14E-03    0.37E-06
 Optimization of the real space projectors (new method)

 maximal supplied QI-value         = 16.25
 optimisation between [QCUT,QGAM] = [ 11.54, 23.24] = [ 37.28,151.24] Ry 
 Optimized for a Real-space Cutoff    1.53 Angstroem

   l    n(q)    QCUT    max X(q) W(low)/X(q) W(high)/X(q)  e(spline) 
   2     10    11.539   110.144    0.12E-03    0.13E-03    0.25E-06
   2     10    11.539   103.200    0.12E-03    0.13E-03    0.25E-06
   0     11    11.539    68.437    0.46E-04    0.21E-04    0.32E-06
   0     11    11.539    33.971    0.37E-04    0.19E-04    0.29E-06
   1     10    11.539    17.065    0.51E-04    0.22E-04    0.13E-06
   1     10    11.539    12.540    0.41E-04    0.18E-04    0.11E-06
 Optimization of the real space projectors (new method)

 maximal supplied QI-value         = 16.25
 optimisation between [QCUT,QGAM] = [ 11.54, 23.24] = [ 37.28,151.24] Ry 
 Optimized for a Real-space Cutoff    1.45 Angstroem

   l    n(q)    QCUT    max X(q) W(low)/X(q) W(high)/X(q)  e(spline) 
   2      9    11.539    60.317    0.19E-03    0.47E-04    0.16E-06
   2      9    11.539    55.921    0.19E-03    0.48E-04    0.16E-06
   0     10    11.539    51.690    0.80E-04    0.50E-04    0.24E-06
   0     10    11.539    30.015    0.73E-04    0.45E-04    0.22E-06
   1     10    11.539    18.849    0.87E-04    0.16E-03    0.71E-07
   1     10    11.539    14.624    0.73E-04    0.13E-03    0.64E-07
 Optimization of the real space projectors (new method)

 maximal supplied QI-value         = 24.76
 optimisation between [QCUT,QGAM] = [ 11.64, 23.27] = [ 37.91,151.63] Ry 
 Optimized for a Real-space Cutoff    1.14 Angstroem

   l    n(q)    QCUT    max X(q) W(low)/X(q) W(high)/X(q)  e(spline) 
   0      8    11.635    20.381    0.10E-03    0.33E-03    0.24E-06
   0      8    11.635    15.268    0.11E-03    0.35E-03    0.26E-06
   1      7    11.635     5.964    0.24E-03    0.31E-03    0.30E-06
   1      7    11.635     5.382    0.22E-03    0.25E-03    0.26E-06
  PAW_PBE La 06Sep2000                  :
 energy of atom  1       EATOM= -865.9763
 kinetic energy error for atom=    0.0009 (will be added to EATOM!!)
  PAW_PBE Mn 06Sep2000                  :
 energy of atom  2       EATOM= -416.7541
 kinetic energy error for atom=    0.0024 (will be added to EATOM!!)
  PAW_PBE Ni 02Aug2007                  :
 energy of atom  3       EATOM=-1077.6739
 kinetic energy error for atom=    0.0030 (will be added to EATOM!!)
  PAW_PBE O 08Apr2002                   :
 energy of atom  4       EATOM= -432.3788
 kinetic energy error for atom=    0.0208 (will be added to EATOM!!)
 
 
 POSCAR: SCEL5_5_1_1_0_3_1/1                     
  positions in direct lattice
  velocities in cartesian coordinates
 exchange correlation table for  LEXCH =        8
   RHO(1)=    0.500       N(1)  =     2000
   RHO(2)=  100.500       N(2)  =     4000
 


--------------------------------------------------------------------------------------------------------


 ion  position               nearest neighbor table
   1  0.800  0.200  0.600-  14 2.74  14 2.74  12 2.74  11 2.74  24 2.76  17 2.76  20 2.76  22 2.76
                            25 2.76  18 2.76  19 2.76  21 2.76  10 3.37   9 3.37  10 3.37   9 3.37
   2  0.601  0.395  0.202-  15 2.72  19 2.73  21 2.73  17 2.74  24 2.74  13 2.74  13 2.74  18 2.76
                            25 2.76  11 2.76  16 2.79  23 2.79   7 3.32   9 3.35   9 3.35   6 3.37
   3  0.396  0.595  0.793-  14 2.69  17 2.71  24 2.71  12 2.74  12 2.74  22 2.75  20 2.75  18 2.76
                            25 2.76  15 2.79  16 2.81  23 2.81   9 3.30   6 3.35   6 3.35  10 3.35
   4  0.204  0.805  0.407-  14 2.69  20 2.71  22 2.71  11 2.74  11 2.74  24 2.75  17 2.75  19 2.76
                            21 2.76  13 2.79  23 2.81  16 2.81  10 3.30   6 3.35   6 3.35   9 3.35
   5  0.999  0.005  0.998-  13 2.72  25 2.73  18 2.73  22 2.74  20 2.74  15 2.74  15 2.74  19 2.76
                            21 2.76  12 2.76  23 2.79  16 2.79   8 3.32  10 3.35  10 3.35   6 3.37
   6  0.800  0.700  0.600-  20 1.90  22 1.90  24 1.90  17 1.90  12 2.01  11 2.01   4 3.35   3 3.35
                             3 3.35   4 3.35   5 3.37   2 3.37   1 3.37   1 3.37
   7  0.599  0.902  0.199-  19 1.89  21 1.89  11 1.92  15 1.93  16 1.94  23 1.94   2 3.32   1 3.38
                             5 3.38   5 3.38   4 3.40   4 3.40   2 3.42   3 3.43
   8  0.001  0.498  0.001-  18 1.89  25 1.89  12 1.92  13 1.93  23 1.94  16 1.94   5 3.32   1 3.38
                             2 3.38   2 3.38   3 3.40   3 3.40   5 3.42   4 3.43
   9  0.200  0.300  0.401-  14 1.96  24 1.97  17 1.97  13 1.98  19 1.99  21 1.99   3 3.30   4 3.35
                             2 3.35   2 3.35   1 3.37   1 3.37   5 3.37
  10  0.400  0.100  0.799-  14 1.96  20 1.97  22 1.97  15 1.98  18 1.99  25 1.99   4 3.30   3 3.35
                             5 3.35   5 3.35   1 3.37   1 3.37   2 3.37
  11  0.697  0.803  0.395-   7 1.92   6 2.01   1 2.74   4 2.74   4 2.74   2 2.76
  12  0.903  0.597  0.805-   8 1.92   6 2.01   1 2.74   3 2.74   3 2.74   5 2.76
  13  0.099  0.400  0.198-   8 1.93   9 1.98   5 2.72   2 2.74   2 2.74   4 2.79
  14  0.300  0.200  0.600-  10 1.96   9 1.96   3 2.69   4 2.69   1 2.74   1 2.74
  15  0.501  1.000  0.002-   7 1.93  10 1.98   2 2.72   5 2.74   5 2.74   3 2.79
  16  0.800  0.700  0.100-   7 1.94   8 1.94   5 2.79   2 2.79   4 2.81   3 2.81
  17  0.996  0.504  0.501-   6 1.90   9 1.97   3 2.71   2 2.74   4 2.75   1 2.76
  18  0.196  0.305  0.903-   8 1.89  10 1.99   5 2.73   3 2.76   2 2.76   1 2.76
  19  0.404  0.095  0.297-   7 1.89   9 1.99   2 2.73   4 2.76   5 2.76   1 2.76
  20  0.604  0.896  0.699-   6 1.90  10 1.97   4 2.71   5 2.74   3 2.75   1 2.76
  21  0.893  0.095  0.297-   7 1.89   9 1.99   2 2.73   4 2.76   5 2.76   1 2.76
  22  0.095  0.896  0.699-   6 1.90  10 1.97   4 2.71   5 2.74   3 2.75   1 2.76
  23  0.300  0.700  0.100-   7 1.94   8 1.94   5 2.79   2 2.79   4 2.81   3 2.81
  24  0.505  0.504  0.501-   6 1.90   9 1.97   3 2.71   2 2.74   4 2.75   1 2.76
  25  0.707  0.305  0.903-   8 1.89  10 1.99   5 2.73   3 2.76   2 2.76   1 2.76
 
  LATTYP: Found a base centered monoclinic cell.
 ALAT       =    16.6083899206
 B/A-ratio  =     0.3300896761
 C/A-ratio  =     0.9680415510
 COS(beta)  =    -0.8692741160
  
  Lattice vectors:
  
 A1 = (  -3.8762161302,  -0.0003257127,  -7.8389023897)
 A2 = (   0.0003257127,   3.8762161302,  -7.8389023897)
 A3 = (   7.7543986560,  -7.7543986560,  11.7570487695)


Analysis of symmetry for initial positions (statically):
=====================================================================
 Subroutine PRICEL returns:
 Original cell was already a primitive cell.
 

 Routine SETGRP: Setting up the symmetry group for a 
 base centered monoclinic supercell.


 Subroutine GETGRP returns: Found  4 space group operations
 (whereof  2 operations were pure point group operations)
 out of a pool of  4 trial point group operations.


The static configuration has the point symmetry C_1h.
 The point group associated with its full space group is C_2h.


Analysis of symmetry for dynamics (positions and initial velocities):
=====================================================================
 Subroutine PRICEL returns:
 Original cell was already a primitive cell.
 

 Routine SETGRP: Setting up the symmetry group for a 
 base centered monoclinic supercell.


 Subroutine GETGRP returns: Found  4 space group operations
 (whereof  2 operations were pure point group operations)
 out of a pool of  4 trial point group operations.


The dynamic configuration has the point symmetry C_1h.
 The point group associated with its full space group is C_2h.


Analysis of structural, dynamic, and magnetic symmetry:
=====================================================================
 Subroutine PRICEL returns:
 Original cell was already a primitive cell.
 

 Routine SETGRP: Setting up the symmetry group for a 
 base centered monoclinic supercell.


 Subroutine GETGRP returns: Found  4 space group operations
 (whereof  2 operations were pure point group operations)
 out of a pool of  4 trial point group operations.


The magnetic configuration has the point symmetry C_1h.
 The point group associated with its full space group is C_2h.


 Subroutine INISYM returns: Found  4 space group operations
 (whereof  2 operations are pure point group operations),
 and found     1 'primitive' translations

 
 
 KPOINTS: Automatic mesh                          

Automatic generation of k-mesh.
 generate k-points for:    4    3    3
Space group operators:
 irot       det(A)        alpha          n_x          n_y          n_z        tau_x        tau_y        tau_z
    1     1.000000     0.000001     1.000000     0.000000     0.000000     0.000000     0.000000     0.000000
    2    -1.000000   180.000000     0.707107     0.707107    -0.000000     0.000000     0.000000     0.000000
    3    -1.000000     0.000001     1.000000     0.000000     0.000000    -0.400000    -0.600000    -0.800000
    4     1.000000   180.000000     0.707107     0.707107    -0.000000    -0.400000    -0.600000    -0.800000
 
 Subroutine IBZKPT returns following result:
 ===========================================
 
 Found     19 irreducible k-points:
 
 Following reciprocal coordinates:
            Coordinates               Weight
  0.000000  0.000000  0.000000      1.000000
  0.250000 -0.000000  0.000000      2.000000
  0.500000 -0.000000  0.000000      1.000000
  0.000000  0.333333  0.000000      2.000000
  0.250000  0.333333  0.000000      2.000000
  0.500000  0.333333  0.000000      2.000000
 -0.250000  0.333333 -0.000000      2.000000
  0.000000  0.000000  0.333333      2.000000
  0.250000  0.000000  0.333333      2.000000
  0.500000 -0.000000  0.333333      2.000000
 -0.250000 -0.000000  0.333333      2.000000
  0.000000  0.333333  0.333333      2.000000
  0.250000  0.333333  0.333333      2.000000
  0.500000  0.333333  0.333333      2.000000
 -0.250000  0.333333  0.333333      2.000000
  0.000000 -0.333333  0.333333      2.000000
  0.250000 -0.333333  0.333333      2.000000
  0.500000 -0.333333  0.333333      2.000000
 -0.250000 -0.333333  0.333333      2.000000
 
 Following cartesian coordinates:
            Coordinates               Weight
  0.000000  0.000000  0.000000      1.000000
 -0.038694 -0.025797 -0.012758      2.000000
 -0.077387 -0.051594 -0.025516      1.000000
 -0.034380  0.034380  0.016999      2.000000
 -0.073073  0.008583  0.004241      2.000000
 -0.111767 -0.017214 -0.008517      2.000000
  0.004314  0.060177  0.029757      2.000000
 -0.017196  0.017196 -0.034021      2.000000
 -0.055889 -0.008601 -0.046778      2.000000
 -0.094583 -0.034398 -0.059536      2.000000
  0.021498  0.042993 -0.021263      2.000000
 -0.051575  0.051575 -0.017022      2.000000
 -0.090269  0.025779 -0.029780      2.000000
 -0.128963 -0.000018 -0.042537      2.000000
 -0.012882  0.077372 -0.004264      2.000000
  0.017184 -0.017184 -0.051020      2.000000
 -0.021509 -0.042981 -0.063777      2.000000
 -0.060203 -0.068778 -0.076535      2.000000
  0.055878  0.008613 -0.038262      2.000000
 
 TETIRR: Found    106 inequivalent tetrahedra from      216


--------------------------------------------------------------------------------------------------------




 Dimension of arrays:
   k-points           NKPTS =     19   k-points in BZ     NKDIM =     19   number of bands    NBANDS=    120
   number of dos      NEDOS =    301   number of ions     NIONS =     25
   non local maximal  LDIM  =      8   non local SUM 2l+1 LMDIM =     32
   total plane-waves  NPLWV = 147000
   max r-space proj   IRMAX =   9054   max aug-charges    IRDMAX=  26267
   dimension x,y,z NGX =    42 NGY =   50 NGZ =   70
   dimension x,y,z NGXF=    84 NGYF=  100 NGZF=  140
   support grid    NGXF=    84 NGYF=  100 NGZF=  140
   ions per type =               5   3   2  15
   NGX,Y,Z   is equivalent  to a cutoff of  12.74, 12.33, 13.31 a.u.
   NGXF,Y,Z  is equivalent  to a cutoff of  25.47, 24.66, 26.61 a.u.

 SYSTEM =  final                                   
 POSCAR =  SCEL5_5_1_1_0_3_1/1                     

 Startparameter for this run:
   NWRITE =      2    write-flag & timer
   PREC   = accura    normal or accurate (medium, high low for compatibility)
   ISTART =      0    job   : 0-new  1-cont  2-samecut
   ICHARG =      1    charge: 1-file 2-atom 10-const
   ISPIN  =      2    spin polarized calculation?
   LNONCOLLINEAR =      F non collinear calculations
   LSORBIT =      F    spin-orbit coupling
   INIWAV =      1    electr: 0-lowe 1-rand  2-diag
   LASPH  =      F    aspherical Exc in radial PAW
   METAGGA=      F    non-selfconsistent MetaGGA calc.

 Electronic Relaxation 1
   ENCUT  =  520.0 eV  38.22 Ry    6.18 a.u.  10.19 12.54 16.26*2*pi/ulx,y,z
   ENINI  =  520.0     initial cutoff
   ENAUG  =  605.4 eV  augmentation charge cutoff
   NELM   =    100;   NELMIN=  2; NELMDL= -5     # of ELM steps 
   EDIFF  = 0.1E-02   stopping-criterion for ELM
   LREAL  =      T    real-space projection
   NLSPLINE    = F    spline interpolate recip. space projectors
   LCOMPAT=      F    compatible to vasp.4.4
   GGA_COMPAT  = T    GGA compatible to vasp.4.4-vasp.4.6
   LMAXPAW     = -100 max onsite density
   LMAXMIX     =    6 max onsite mixed and CHGCAR
   VOSKOWN=      0    Vosko Wilk Nusair interpolation
   ROPT   =   -0.00025  -0.00025  -0.00025  -0.00025
 Ionic relaxation
   EDIFFG = 0.1E-01   stopping-criterion for IOM
   NSW    =      0    number of steps for IOM
   NBLOCK =      1;   KBLOCK =      1    inner block; outer block 
   IBRION =     -1    ionic relax: 0-MD 1-quasi-New 2-CG
   NFREE  =      0    steps in history (QN), initial steepest desc. (CG)
   ISIF   =      2    stress and relaxation
   IWAVPR =     10    prediction:  0-non 1-charg 2-wave 3-comb
   ISYM   =      2    0-nonsym 1-usesym 2-fastsym
   LCORR  =      T    Harris-Foulkes like correction to forces

   POTIM  = 0.5000    time-step for ionic-motion
   TEIN   =    0.0    initial temperature
   TEBEG  =    0.0;   TEEND  =   0.0 temperature during run
   SMASS  =  -3.00    Nose mass-parameter (am)
   estimated Nose-frequenzy (Omega)   =  0.10E-29 period in steps =****** mass=  -0.687E-27a.u.
   SCALEE = 1.0000    scale energy and forces
   NPACO  =    256;   APACO  = 16.0  distance and # of slots for P.C.
   PSTRESS=    0.0 pullay stress

  Mass of Ions in am
   POMASS = 138.90 54.94 58.69 16.00
  Ionic Valenz
   ZVAL   =  11.00  7.00 10.00  6.00
  Atomic Wigner-Seitz radii
   RWIGS  =  -1.00 -1.00 -1.00 -1.00
  virtual crystal weights 
   VCA    =   1.00  1.00  1.00  1.00
   NELECT =     186.0000    total number of electrons
   NUPDOWN=      -1.0000    fix difference up-down

 DOS related values:
   EMIN   =  10.00;   EMAX   =-10.00  energy-range for DOS
   EFERMI =   0.00
   ISMEAR =    -5;   SIGMA  =   0.05  broadening in eV -4-tet -1-fermi 0-gaus

 Electronic relaxation 2 (details)
   IALGO  =     68    algorithm
   LDIAG  =      T    sub-space diagonalisation (order eigenvalues)
   LSUBROT=      F    optimize rotation matrix (better conditioning)
   TURBO    =      0    0=normal 1=particle mesh
   IRESTART =      0    0=no restart 2=restart with 2 vectors
   NREBOOT  =      0    no. of reboots
   NMIN     =      0    reboot dimension
   EREF     =   0.00    reference energy to select bands
   IMIX   =      4    mixing-type and parameters
     AMIX     =   0.40;   BMIX     =  1.00
     AMIX_MAG =   1.60;   BMIX_MAG =  1.00
     AMIN     =   0.10
     WC   =   100.;   INIMIX=   1;  MIXPRE=   1;  MAXMIX= -45

 Intra band minimization:
   WEIMIN = 0.0000     energy-eigenvalue tresh-hold
   EBREAK =  0.21E-05  absolut break condition
   DEPER  =   0.30     relativ break condition  

   TIME   =   0.40     timestep for ELM

  volume/ion in A,a.u.               =      11.79        79.53
  Fermi-wavevector in a.u.,A,eV,Ry     =   1.404389  2.653911 26.834904  1.972310
  Thomas-Fermi vector in A             =   2.526956
 
 Write flags
   LWAVE        =      F    write WAVECAR
   LDOWNSAMPLE  =      F    k-point downsampling of WAVECAR
   LCHARG       =      T    write CHGCAR
   LVTOT        =      F    write LOCPOT, total local potential
   LVHAR        =      F    write LOCPOT, Hartree potential only
   LELF         =      F    write electronic localiz. function (ELF)
   LORBIT       =     11    0 simple, 1 ext, 2 COOP (PROOUT), +10 PAW based schemes


 Dipole corrections
   LMONO  =      F    monopole corrections only (constant potential shift)
   LDIPOL =      F    correct potential (dipole corrections)
   IDIPOL =      0    1-x, 2-y, 3-z, 4-all directions 
   EPSILON=  1.0000000 bulk dielectric constant

 LDA+U is selected, type is set to LDAUTYPE =  2
   angular momentum for each species LDAUL =     0    2    2    0
   U (eV)           for each species LDAUU =   0.0  3.9  6.2  0.0
   J (eV)           for each species LDAUJ =   0.0  0.0  0.0  0.0
 Exchange correlation treatment:
   GGA     =    --    GGA type
   LEXCH   =     8    internal setting for exchange type
   VOSKOWN=      0    Vosko Wilk Nusair interpolation
   LHFCALC =     F    Hartree Fock is set to
   LHFONE  =     F    Hartree Fock one center treatment
   AEXX    =    0.0000 exact exchange contribution

 Linear response parameters
   LEPSILON=     F    determine dielectric tensor
   LRPA    =     F    only Hartree local field effects (RPA)
   LNABLA  =     F    use nabla operator in PAW spheres
   LVEL    =     F    velocity operator in full k-point grid
   LINTERFAST=   F  fast interpolation
   KINTER  =     0    interpolate to denser k-point grid
   CSHIFT  =0.1000    complex shift for real part using Kramers Kronig
   OMEGAMAX=  -1.0    maximum frequency
   DEG_THRESHOLD= 0.2000000E-02 threshold for treating states as degnerate
   RTIME   =   -0.100 relaxation time in fs
  (WPLASMAI=    0.000 imaginary part of plasma frequency in eV, 0.658/RTIME)
   DFIELD  = 0.0000000 0.0000000 0.0000000 field for delta impulse in time
 
 Orbital magnetization related:
   ORBITALMAG=     F  switch on orbital magnetization
   LCHIMAG   =     F  perturbation theory with respect to B field
   DQ        =  0.001000  dq finite difference perturbation B field
   LLRAUG    =     F  two centre corrections for induced B field



--------------------------------------------------------------------------------------------------------


 Static calculation
 charge density and potential will be updated during run
 spin polarized calculation
 RMM-DIIS sequential band-by-band and
  variant of blocked Davidson during initial phase
 perform sub-space diagonalisation
    before iterative eigenvector-optimisation
 modified Broyden-mixing scheme, WC =      100.0
 initial mixing is a Kerker type mixing with AMIX =  0.4000 and BMIX =      1.0000
 Hartree-type preconditioning will be used
 using additional bands           27
 real space projection scheme for non local part
 use partial core corrections
 calculate Harris-corrections to forces 
   (improved forces if not selfconsistent)
 use gradient corrections 
 use of overlap-Matrix (Vanderbilt PP)
 Fermi weights with tetrahedron method with Bloechl corrections


--------------------------------------------------------------------------------------------------------


  energy-cutoff  :      520.00
  volume of cell :      294.63
      direct lattice vectors                 reciprocal lattice vectors
    -3.876541843 -3.876541843  0.000000000    -0.154774395 -0.103187479 -0.051031045
    -3.878508239  3.878508239  3.920756010    -0.103139496  0.103139496  0.050996602
     0.000325713  3.876216130 -7.838902390    -0.051586916  0.051586916 -0.102062091

  length of vectors
     5.482258049  6.742253333  8.744909506     0.192890997  0.154519140  0.125455531


 
 k-points in units of 2pi/SCALE and weight: Automatic mesh                          
   0.00000000  0.00000000  0.00000000       0.028
  -0.03869360 -0.02579687 -0.01275776       0.056
  -0.07738720 -0.05159374 -0.02551552       0.028
  -0.03437983  0.03437983  0.01699887       0.056
  -0.07307343  0.00858296  0.00424111       0.056
  -0.11176703 -0.01721391 -0.00851666       0.056
   0.00431377  0.06017670  0.02975663       0.056
  -0.01719564  0.01719564 -0.03402070       0.056
  -0.05588924 -0.00860123 -0.04677846       0.056
  -0.09458284 -0.03439810 -0.05953622       0.056
   0.02149796  0.04299251 -0.02126294       0.056
  -0.05157547  0.05157547 -0.01702183       0.056
  -0.09026907  0.02577860 -0.02977959       0.056
  -0.12896267 -0.00001827 -0.04253735       0.056
  -0.01288187  0.07737234 -0.00426407       0.056
   0.01718419 -0.01718419 -0.05101956       0.056
  -0.02150941 -0.04298106 -0.06377733       0.056
  -0.06020300 -0.06877793 -0.07653509       0.056
   0.05587779  0.00861268 -0.03826180       0.056
 
 k-points in reciprocal lattice and weights: Automatic mesh                          
   0.00000000  0.00000000  0.00000000       0.028
   0.25000000 -0.00000000  0.00000000       0.056
   0.50000000 -0.00000000  0.00000000       0.028
   0.00000000  0.33333333  0.00000000       0.056
   0.25000000  0.33333333  0.00000000       0.056
   0.50000000  0.33333333  0.00000000       0.056
  -0.25000000  0.33333333 -0.00000000       0.056
   0.00000000  0.00000000  0.33333333       0.056
   0.25000000  0.00000000  0.33333333       0.056
   0.50000000 -0.00000000  0.33333333       0.056
  -0.25000000 -0.00000000  0.33333333       0.056
   0.00000000  0.33333333  0.33333333       0.056
   0.25000000  0.33333333  0.33333333       0.056
   0.50000000  0.33333333  0.33333333       0.056
  -0.25000000  0.33333333  0.33333333       0.056
   0.00000000 -0.33333333  0.33333333       0.056
   0.25000000 -0.33333333  0.33333333       0.056
   0.50000000 -0.33333333  0.33333333       0.056
  -0.25000000 -0.33333333  0.33333333       0.056
 
 position of ions in fractional coordinates (direct lattice) 
   0.80000000  0.20000000  0.60000000
   0.60075389  0.39540907  0.20150777
   0.39635205  0.59475346  0.79270409
   0.20364795  0.80524654  0.40729591
   0.99924611  0.00459093  0.99849223
   0.80000000  0.70000000  0.60000000
   0.59934926  0.90153675  0.19869852
   0.00065074  0.49846325  0.00130148
   0.20027913  0.30013516  0.40055827
   0.39972087  0.09986484  0.79944173
   0.69731852  0.80262768  0.39463703
   0.90268148  0.59737232  0.80536297
   0.09921827  0.40033251  0.19843654
   0.30000000  0.20000000  0.60000000
   0.50078173  0.99966749  0.00156346
   0.80000000  0.70000000  0.10000000
   0.99590329  0.50400763  0.50106839
   0.19602086  0.30509271  0.90313186
   0.40397914  0.09490729  0.29686814
   0.60409671  0.89599237  0.69893161
   0.89288900  0.09490729  0.29686814
   0.09483490  0.89599237  0.69893161
   0.30000000  0.70000000  0.10000000
   0.50516510  0.50400763  0.50106839
   0.70711100  0.30509271  0.90313186
 
 position of ions in cartesian coordinates  (Angst):
  -3.87673969  0.00019785 -3.91919023
  -3.86237928 -0.01416256 -0.02929727
  -3.84297328  3.84297328 -3.88204682
  -3.91247250  3.91247250 -0.03557763
  -3.89110011  0.01455827 -7.80908319
  -5.81599381  1.93945197 -1.95881223
  -5.81995545  1.94341361  1.97712733
  -1.93581604  1.93581604  1.94415060
  -1.94033667  1.94033667 -1.96318044
  -1.93660088  1.93660088 -5.87520003
  -5.81605393  1.93951209  0.05338611
  -5.81593369  1.93939185 -3.97101056
  -1.93725209  1.93725209  0.01408140
  -1.93846877  1.93846877 -3.91919023
  -5.81851940  1.94197756  3.90719654
  -5.81615667  0.00134391  1.96063897
  -5.81529533  0.03638635 -1.95173526
  -1.94289350  3.92415583 -5.88336842
  -1.93404405 -0.04721829 -1.95501205
  -5.81669230  3.84251759 -1.96588919
  -3.82932356 -1.94249780 -1.95501205
  -3.84251759  5.81669230 -1.96588919
  -3.87788575  1.93961483  1.96063897
  -3.91292819  1.93875348 -1.95173526
  -3.92415583  1.94289350 -5.88336842
 


--------------------------------------------------------------------------------------------------------


 k-point  1 :   0.0000 0.0000 0.0000  plane waves:    7923
 k-point  2 :   0.2500-0.0000 0.0000  plane waves:    7942
 k-point  3 :   0.5000-0.0000 0.0000  plane waves:    7964
 k-point  4 :   0.0000 0.3333 0.0000  plane waves:    7925
 k-point  5 :   0.2500 0.3333 0.0000  plane waves:    7922
 k-point  6 :   0.5000 0.3333 0.0000  plane waves:    7936
 k-point  7 :  -0.2500 0.3333-0.0000  plane waves:    7929
 k-point  8 :   0.0000 0.0000 0.3333  plane waves:    7924
 k-point  9 :   0.2500 0.0000 0.3333  plane waves:    7946
 k-point 10 :   0.5000-0.0000 0.3333  plane waves:    7944
 k-point 11 :  -0.2500-0.0000 0.3333  plane waves:    7938
 k-point 12 :   0.0000 0.3333 0.3333  plane waves:    7924
 k-point 13 :   0.2500 0.3333 0.3333  plane waves:    7924
 k-point 14 :   0.5000 0.3333 0.3333  plane waves:    7926
 k-point 15 :  -0.2500 0.3333 0.3333  plane waves:    7924
 k-point 16 :   0.0000-0.3333 0.3333  plane waves:    7955
 k-point 17 :   0.2500-0.3333 0.3333  plane waves:    7925
 k-point 18 :   0.5000-0.3333 0.3333  plane waves:    7934
 k-point 19 :  -0.2500-0.3333 0.3333  plane waves:    7926

 maximum and minimum number of plane-waves per node :       819      770

 maximum number of plane-waves:      7964
 maximum index in each direction: 
   IXMAX=   10   IYMAX=   12   IZMAX=   16
   IXMIN=  -10   IYMIN=  -12   IZMIN=  -16


 real space projection operators:
  total allocation   :      18556.86 KBytes
  max/ min on nodes  :       2207.31       1738.42


 parallel 3D FFT for wavefunctions:
    minimum data exchange during FFTs selected (reduces bandwidth)
 parallel 3D FFT for charge:
    minimum data exchange during FFTs selected (reduces bandwidth)


 total amount of memory used by VASP MPI-rank0    78735. kBytes
=======================================================================

   base      :      30000. kBytes
   nonlr-proj:       6553. kBytes
   fftplans  :       2818. kBytes
   grid      :       8208. kBytes
   one-center:        294. kBytes
   wavefun   :      30862. kBytes
 
     INWAV:  cpu time    0.0000: real time    0.0000
 Broyden mixing: mesh for mixing (old mesh)
   NGX = 21   NGY = 25   NGZ = 33
  (NGX  = 84   NGY  =100   NGZ  =140)
  gives a total of  17325 points

 initial charge density was supplied:
 charge density of overlapping atoms calculated
 number of electron     186.0000000 magnetization      18.0000000
 keeping initial charge density in first step


--------------------------------------------------------------------------------------------------------


 Maximum index for non-local projection operator         1282
 Maximum index for augmentation-charges         2000 (set IRDMAX)


--------------------------------------------------------------------------------------------------------


 First call to EWALD:  gamma=   0.266
 Maximum number of real-space cells 3x 3x 2
 Maximum number of reciprocal cells 2x 3x 3

    FEWALD:  cpu time    0.0017: real time    0.0017


--------------------------------------- Iteration      1(   1)  ---------------------------------------


    POTLOK:  cpu time    0.0772: real time    0.0785
    SETDIJ:  cpu time    0.0133: real time    0.0135
atom =   1  type =  1  l = 0
 
 onsite density matrix
 
spin component  1
 
  1.0989
 
spin component  2
 
  1.0989
 
 occupancies and eigenvectors
 
  o =  1.0989  v =  1.0000  0.0000      0.0000  0.0000
  o =  1.0989  v =  0.0000  1.0000      0.0000  0.0000
atom =   2  type =  1  l = 0
 
 onsite density matrix
 
spin component  1
 
  1.0989
 
spin component  2
 
  1.0989
 
 occupancies and eigenvectors
 
  o =  1.0989  v =  1.0000  0.0000      0.0000  0.0000
  o =  1.0989  v =  0.0000  1.0000      0.0000  0.0000
atom =   3  type =  1  l = 0
 
 onsite density matrix
 
spin component  1
 
  1.0989
 
spin component  2
 
  1.0989
 
 occupancies and eigenvectors
 
  o =  1.0989  v =  1.0000  0.0000      0.0000  0.0000
  o =  1.0989  v =  0.0000  1.0000      0.0000  0.0000
atom =   4  type =  1  l = 0
 
 onsite density matrix
 
spin component  1
 
  1.0989
 
spin component  2
 
  1.0989
 
 occupancies and eigenvectors
 
  o =  1.0989  v =  1.0000  0.0000      0.0000  0.0000
  o =  1.0989  v =  0.0000  1.0000      0.0000  0.0000
atom =   5  type =  1  l = 0
 
 onsite density matrix
 
spin component  1
 
  1.0989
 
spin component  2
 
  1.0989
 
 occupancies and eigenvectors
 
  o =  1.0989  v =  1.0000  0.0000      0.0000  0.0000
  o =  1.0989  v =  0.0000  1.0000      0.0000  0.0000
atom =   6  type =  2  l = 2
 
 onsite density matrix
 
spin component  1
 
  0.8272  0.0000  0.0000  0.0000  0.0000
  0.0000  0.8272  0.0000  0.0000  0.0000
  0.0000  0.0000  0.8272  0.0000  0.0000
  0.0000  0.0000  0.0000  0.8272  0.0000
  0.0000  0.0000  0.0000  0.0000  0.8272
 
spin component  2
 
  0.2256  0.0000  0.0000  0.0000  0.0000
  0.0000  0.2256  0.0000  0.0000  0.0000
  0.0000  0.0000  0.2256  0.0000  0.0000
  0.0000  0.0000  0.0000  0.2256  0.0000
  0.0000  0.0000  0.0000  0.0000  0.2256
 
 occupancies and eigenvectors
 
  o =  0.2256  v =  0.0000  0.0000  0.0000  0.0000  0.0000  0.0000  0.0000  1.0000  0.0000  0.0000      0.0000  0.0000  0.0000  0.0000  0.0000  0.0000  0.0000  0.0000  0.0000  0.0000
  o =  0.2256  v =  0.0000  0.0000  0.0000  0.0000  0.0000  1.0000  0.0000  0.0000  0.0000  0.0000      0.0000  0.0000  0.0000  0.0000  0.0000  0.0000  0.0000  0.0000  0.0000  0.0000
  o =  0.2256  v =  0.0000  0.0000  0.0000  0.0000  0.0000  0.0000  1.0000  0.0000  0.0000  0.0000      0.0000  0.0000  0.0000  0.0000  0.0000  0.0000  0.0000  0.0000  0.0000  0.0000
  o =  0.2256  v =  0.0000  0.0000  0.0000  0.0000  0.0000  0.0000  0.0000  0.0000  1.0000  0.0000      0.0000  0.0000  0.0000  0.0000  0.0000  0.0000  0.0000  0.0000  0.0000  0.0000
  o =  0.2256  v =  0.0000  0.0000  0.0000  0.0000  0.0000  0.0000  0.0000  0.0000  0.0000  1.0000      0.0000  0.0000  0.0000  0.0000  0.0000  0.0000  0.0000  0.0000  0.0000  0.0000
  o =  0.8272  v =  0.0000  1.0000  0.0000  0.0000  0.0000  0.0000  0.0000  0.0000  0.0000  0.0000      0.0000  0.0000  0.0000  0.0000  0.0000  0.0000  0.0000  0.0000  0.0000  0.0000
  o =  0.8272  v =  0.0000  0.0000  1.0000  0.0000  0.0000  0.0000  0.0000  0.0000  0.0000  0.0000      0.0000  0.0000  0.0000  0.0000  0.0000  0.0000  0.0000  0.0000  0.0000  0.0000
  o =  0.8272  v =  1.0000  0.0000  0.0000  0.0000  0.0000  0.0000  0.0000  0.0000  0.0000  0.0000      0.0000  0.0000  0.0000  0.0000  0.0000  0.0000  0.0000  0.0000  0.0000  0.0000
  o =  0.8272  v =  0.0000  0.0000  0.0000  1.0000  0.0000  0.0000  0.0000  0.0000  0.0000  0.0000      0.0000  0.0000  0.0000  0.0000  0.0000  0.0000  0.0000  0.0000  0.0000  0.0000
  o =  0.8272  v =  0.0000  0.0000  0.0000  0.0000  1.0000  0.0000  0.0000  0.0000  0.0000  0.0000      0.0000  0.0000  0.0000  0.0000  0.0000  0.0000  0.0000  0.0000  0.0000  0.0000
atom =   7  type =  2  l = 2
 
 onsite density matrix
 
spin component  1
 
  0.8272  0.0000  0.0000  0.0000  0.0000
  0.0000  0.8272  0.0000  0.0000  0.0000
  0.0000  0.0000  0.8272  0.0000  0.0000
  0.0000  0.0000  0.0000  0.8272  0.0000
  0.0000  0.0000  0.0000  0.0000  0.8272
 
spin component  2
 
  0.2256  0.0000  0.0000  0.0000  0.0000
  0.0000  0.2256  0.0000  0.0000  0.0000
  0.0000  0.0000  0.2256  0.0000  0.0000
  0.0000  0.0000  0.0000  0.2256  0.0000
  0.0000  0.0000  0.0000  0.0000  0.2256
 
 occupancies and eigenvectors
 
  o =  0.2256  v =  0.0000  0.0000  0.0000  0.0000  0.0000  0.0000  0.0000  1.0000  0.0000  0.0000      0.0000  0.0000  0.0000  0.0000  0.0000  0.0000  0.0000  0.0000  0.0000  0.0000
  o =  0.2256  v =  0.0000  0.0000  0.0000  0.0000  0.0000  1.0000  0.0000  0.0000  0.0000  0.0000      0.0000  0.0000  0.0000  0.0000  0.0000  0.0000  0.0000  0.0000  0.0000  0.0000
  o =  0.2256  v =  0.0000  0.0000  0.0000  0.0000  0.0000  0.0000  1.0000  0.0000  0.0000  0.0000      0.0000  0.0000  0.0000  0.0000  0.0000  0.0000  0.0000  0.0000  0.0000  0.0000
  o =  0.2256  v =  0.0000  0.0000  0.0000  0.0000  0.0000  0.0000  0.0000  0.0000  1.0000  0.0000      0.0000  0.0000  0.0000  0.0000  0.0000  0.0000  0.0000  0.0000  0.0000  0.0000
  o =  0.2256  v =  0.0000  0.0000  0.0000  0.0000  0.0000  0.0000  0.0000  0.0000  0.0000  1.0000      0.0000  0.0000  0.0000  0.0000  0.0000  0.0000  0.0000  0.0000  0.0000  0.0000
  o =  0.8272  v =  0.0000  1.0000  0.0000  0.0000  0.0000  0.0000  0.0000  0.0000  0.0000  0.0000      0.0000  0.0000  0.0000  0.0000  0.0000  0.0000  0.0000  0.0000  0.0000  0.0000
  o =  0.8272  v =  0.0000  0.0000  1.0000  0.0000  0.0000  0.0000  0.0000  0.0000  0.0000  0.0000      0.0000  0.0000  0.0000  0.0000  0.0000  0.0000  0.0000  0.0000  0.0000  0.0000
  o =  0.8272  v =  1.0000  0.0000  0.0000  0.0000  0.0000  0.0000  0.0000  0.0000  0.0000  0.0000      0.0000  0.0000  0.0000  0.0000  0.0000  0.0000  0.0000  0.0000  0.0000  0.0000
  o =  0.8272  v =  0.0000  0.0000  0.0000  1.0000  0.0000  0.0000  0.0000  0.0000  0.0000  0.0000      0.0000  0.0000  0.0000  0.0000  0.0000  0.0000  0.0000  0.0000  0.0000  0.0000
  o =  0.8272  v =  0.0000  0.0000  0.0000  0.0000  1.0000  0.0000  0.0000  0.0000  0.0000  0.0000      0.0000  0.0000  0.0000  0.0000  0.0000  0.0000  0.0000  0.0000  0.0000  0.0000
atom =   8  type =  2  l = 2
 
 onsite density matrix
 
spin component  1
 
  0.8272  0.0000  0.0000  0.0000  0.0000
  0.0000  0.8272  0.0000  0.0000  0.0000
  0.0000  0.0000  0.8272  0.0000  0.0000
  0.0000  0.0000  0.0000  0.8272  0.0000
  0.0000  0.0000  0.0000  0.0000  0.8272
 
spin component  2
 
  0.2256  0.0000  0.0000  0.0000  0.0000
  0.0000  0.2256  0.0000  0.0000  0.0000
  0.0000  0.0000  0.2256  0.0000  0.0000
  0.0000  0.0000  0.0000  0.2256  0.0000
  0.0000  0.0000  0.0000  0.0000  0.2256
 
 occupancies and eigenvectors
 
  o =  0.2256  v =  0.0000  0.0000  0.0000  0.0000  0.0000  0.0000  0.0000  1.0000  0.0000  0.0000      0.0000  0.0000  0.0000  0.0000  0.0000  0.0000  0.0000  0.0000  0.0000  0.0000
  o =  0.2256  v =  0.0000  0.0000  0.0000  0.0000  0.0000  1.0000  0.0000  0.0000  0.0000  0.0000      0.0000  0.0000  0.0000  0.0000  0.0000  0.0000  0.0000  0.0000  0.0000  0.0000
  o =  0.2256  v =  0.0000  0.0000  0.0000  0.0000  0.0000  0.0000  1.0000  0.0000  0.0000  0.0000      0.0000  0.0000  0.0000  0.0000  0.0000  0.0000  0.0000  0.0000  0.0000  0.0000
  o =  0.2256  v =  0.0000  0.0000  0.0000  0.0000  0.0000  0.0000  0.0000  0.0000  1.0000  0.0000      0.0000  0.0000  0.0000  0.0000  0.0000  0.0000  0.0000  0.0000  0.0000  0.0000
  o =  0.2256  v =  0.0000  0.0000  0.0000  0.0000  0.0000  0.0000  0.0000  0.0000  0.0000  1.0000      0.0000  0.0000  0.0000  0.0000  0.0000  0.0000  0.0000  0.0000  0.0000  0.0000
  o =  0.8272  v =  0.0000  1.0000  0.0000  0.0000  0.0000  0.0000  0.0000  0.0000  0.0000  0.0000      0.0000  0.0000  0.0000  0.0000  0.0000  0.0000  0.0000  0.0000  0.0000  0.0000
  o =  0.8272  v =  0.0000  0.0000  1.0000  0.0000  0.0000  0.0000  0.0000  0.0000  0.0000  0.0000      0.0000  0.0000  0.0000  0.0000  0.0000  0.0000  0.0000  0.0000  0.0000  0.0000
  o =  0.8272  v =  1.0000  0.0000  0.0000  0.0000  0.0000  0.0000  0.0000  0.0000  0.0000  0.0000      0.0000  0.0000  0.0000  0.0000  0.0000  0.0000  0.0000  0.0000  0.0000  0.0000
  o =  0.8272  v =  0.0000  0.0000  0.0000  1.0000  0.0000  0.0000  0.0000  0.0000  0.0000  0.0000      0.0000  0.0000  0.0000  0.0000  0.0000  0.0000  0.0000  0.0000  0.0000  0.0000
  o =  0.8272  v =  0.0000  0.0000  0.0000  0.0000  1.0000  0.0000  0.0000  0.0000  0.0000  0.0000      0.0000  0.0000  0.0000  0.0000  0.0000  0.0000  0.0000  0.0000  0.0000  0.0000
atom =   9  type =  3  l = 2
 
 onsite density matrix
 
spin component  1
 
  1.1008  0.0000  0.0000  0.0000  0.0000
  0.0000  1.1008  0.0000  0.0000  0.0000
  0.0000  0.0000  1.1008  0.0000  0.0000
  0.0000  0.0000  0.0000  1.1008  0.0000
  0.0000  0.0000  0.0000  0.0000  1.1008
 
spin component  2
 
  0.5927  0.0000  0.0000  0.0000  0.0000
  0.0000  0.5927  0.0000  0.0000  0.0000
  0.0000  0.0000  0.5927  0.0000  0.0000
  0.0000  0.0000  0.0000  0.5927  0.0000
  0.0000  0.0000  0.0000  0.0000  0.5927
 
 occupancies and eigenvectors
 
  o =  0.5927  v =  0.0000  0.0000  0.0000  0.0000  0.0000  1.0000  0.0000  0.0000  0.0000  0.0000      0.0000  0.0000  0.0000  0.0000  0.0000  0.0000  0.0000  0.0000  0.0000  0.0000
  o =  0.5927  v =  0.0000  0.0000  0.0000  0.0000  0.0000  0.0000  1.0000  0.0000  0.0000  0.0000      0.0000  0.0000  0.0000  0.0000  0.0000  0.0000  0.0000  0.0000  0.0000  0.0000
  o =  0.5927  v =  0.0000  0.0000  0.0000  0.0000  0.0000  0.0000  0.0000  1.0000  0.0000  0.0000      0.0000  0.0000  0.0000  0.0000  0.0000  0.0000  0.0000  0.0000  0.0000  0.0000
  o =  0.5927  v =  0.0000  0.0000  0.0000  0.0000  0.0000  0.0000  0.0000  0.0000  1.0000  0.0000      0.0000  0.0000  0.0000  0.0000  0.0000  0.0000  0.0000  0.0000  0.0000  0.0000
  o =  0.5927  v =  0.0000  0.0000  0.0000  0.0000  0.0000  0.0000  0.0000  0.0000  0.0000  1.0000      0.0000  0.0000  0.0000  0.0000  0.0000  0.0000  0.0000  0.0000  0.0000  0.0000
  o =  1.1008  v =  1.0000  0.0000  0.0000  0.0000  0.0000  0.0000  0.0000  0.0000  0.0000  0.0000      0.0000  0.0000  0.0000  0.0000  0.0000  0.0000  0.0000  0.0000  0.0000  0.0000
  o =  1.1008  v =  0.0000  1.0000  0.0000  0.0000  0.0000  0.0000  0.0000  0.0000  0.0000  0.0000      0.0000  0.0000  0.0000  0.0000  0.0000  0.0000  0.0000  0.0000  0.0000  0.0000
  o =  1.1008  v =  0.0000  0.0000  1.0000  0.0000  0.0000  0.0000  0.0000  0.0000  0.0000  0.0000      0.0000  0.0000  0.0000  0.0000  0.0000  0.0000  0.0000  0.0000  0.0000  0.0000
  o =  1.1008  v =  0.0000  0.0000  0.0000  1.0000  0.0000  0.0000  0.0000  0.0000  0.0000  0.0000      0.0000  0.0000  0.0000  0.0000  0.0000  0.0000  0.0000  0.0000  0.0000  0.0000
  o =  1.1008  v =  0.0000  0.0000  0.0000  0.0000  1.0000  0.0000  0.0000  0.0000  0.0000  0.0000      0.0000  0.0000  0.0000  0.0000  0.0000  0.0000  0.0000  0.0000  0.0000  0.0000
atom =  10  type =  3  l = 2
 
 onsite density matrix
 
spin component  1
 
  1.1008  0.0000  0.0000  0.0000  0.0000
  0.0000  1.1008  0.0000  0.0000  0.0000
  0.0000  0.0000  1.1008  0.0000  0.0000
  0.0000  0.0000  0.0000  1.1008  0.0000
  0.0000  0.0000  0.0000  0.0000  1.1008
 
spin component  2
 
  0.5927  0.0000  0.0000  0.0000  0.0000
  0.0000  0.5927  0.0000  0.0000  0.0000
  0.0000  0.0000  0.5927  0.0000  0.0000
  0.0000  0.0000  0.0000  0.5927  0.0000
  0.0000  0.0000  0.0000  0.0000  0.5927
 
 occupancies and eigenvectors
 
  o =  0.5927  v =  0.0000  0.0000  0.0000  0.0000  0.0000  1.0000  0.0000  0.0000  0.0000  0.0000      0.0000  0.0000  0.0000  0.0000  0.0000  0.0000  0.0000  0.0000  0.0000  0.0000
  o =  0.5927  v =  0.0000  0.0000  0.0000  0.0000  0.0000  0.0000  1.0000  0.0000  0.0000  0.0000      0.0000  0.0000  0.0000  0.0000  0.0000  0.0000  0.0000  0.0000  0.0000  0.0000
  o =  0.5927  v =  0.0000  0.0000  0.0000  0.0000  0.0000  0.0000  0.0000  1.0000  0.0000  0.0000      0.0000  0.0000  0.0000  0.0000  0.0000  0.0000  0.0000  0.0000  0.0000  0.0000
  o =  0.5927  v =  0.0000  0.0000  0.0000  0.0000  0.0000  0.0000  0.0000  0.0000  1.0000  0.0000      0.0000  0.0000  0.0000  0.0000  0.0000  0.0000  0.0000  0.0000  0.0000  0.0000
  o =  0.5927  v =  0.0000  0.0000  0.0000  0.0000  0.0000  0.0000  0.0000  0.0000  0.0000  1.0000      0.0000  0.0000  0.0000  0.0000  0.0000  0.0000  0.0000  0.0000  0.0000  0.0000
  o =  1.1008  v =  1.0000  0.0000  0.0000  0.0000  0.0000  0.0000  0.0000  0.0000  0.0000  0.0000      0.0000  0.0000  0.0000  0.0000  0.0000  0.0000  0.0000  0.0000  0.0000  0.0000
  o =  1.1008  v =  0.0000  1.0000  0.0000  0.0000  0.0000  0.0000  0.0000  0.0000  0.0000  0.0000      0.0000  0.0000  0.0000  0.0000  0.0000  0.0000  0.0000  0.0000  0.0000  0.0000
  o =  1.1008  v =  0.0000  0.0000  1.0000  0.0000  0.0000  0.0000  0.0000  0.0000  0.0000  0.0000      0.0000  0.0000  0.0000  0.0000  0.0000  0.0000  0.0000  0.0000  0.0000  0.0000
  o =  1.1008  v =  0.0000  0.0000  0.0000  1.0000  0.0000  0.0000  0.0000  0.0000  0.0000  0.0000      0.0000  0.0000  0.0000  0.0000  0.0000  0.0000  0.0000  0.0000  0.0000  0.0000
  o =  1.1008  v =  0.0000  0.0000  0.0000  0.0000  1.0000  0.0000  0.0000  0.0000  0.0000  0.0000      0.0000  0.0000  0.0000  0.0000  0.0000  0.0000  0.0000  0.0000  0.0000  0.0000
atom =  11  type =  4  l = 0
 
 onsite density matrix
 
spin component  1
 
  0.8190
 
spin component  2
 
  0.8190
 
 occupancies and eigenvectors
 
  o =  0.8190  v =  1.0000  0.0000      0.0000  0.0000
  o =  0.8190  v =  0.0000  1.0000      0.0000  0.0000
atom =  12  type =  4  l = 0
 
 onsite density matrix
 
spin component  1
 
  0.8190
 
spin component  2
 
  0.8190
 
 occupancies and eigenvectors
 
  o =  0.8190  v =  1.0000  0.0000      0.0000  0.0000
  o =  0.8190  v =  0.0000  1.0000      0.0000  0.0000
atom =  13  type =  4  l = 0
 
 onsite density matrix
 
spin component  1
 
  0.8190
 
spin component  2
 
  0.8190
 
 occupancies and eigenvectors
 
  o =  0.8190  v =  1.0000  0.0000      0.0000  0.0000
  o =  0.8190  v =  0.0000  1.0000      0.0000  0.0000
atom =  14  type =  4  l = 0
 
 onsite density matrix
 
spin component  1
 
  0.8190
 
spin component  2
 
  0.8190
 
 occupancies and eigenvectors
 
  o =  0.8190  v =  1.0000  0.0000      0.0000  0.0000
  o =  0.8190  v =  0.0000  1.0000      0.0000  0.0000
atom =  15  type =  4  l = 0
 
 onsite density matrix
 
spin component  1
 
  0.8190
 
spin component  2
 
  0.8190
 
 occupancies and eigenvectors
 
  o =  0.8190  v =  1.0000  0.0000      0.0000  0.0000
  o =  0.8190  v =  0.0000  1.0000      0.0000  0.0000
atom =  16  type =  4  l = 0
 
 onsite density matrix
 
spin component  1
 
  0.8190
 
spin component  2
 
  0.8190
 
 occupancies and eigenvectors
 
  o =  0.8190  v =  1.0000  0.0000      0.0000  0.0000
  o =  0.8190  v =  0.0000  1.0000      0.0000  0.0000
atom =  17  type =  4  l = 0
 
 onsite density matrix
 
spin component  1
 
  0.8190
 
spin component  2
 
  0.8190
 
 occupancies and eigenvectors
 
  o =  0.8190  v =  1.0000  0.0000      0.0000  0.0000
  o =  0.8190  v =  0.0000  1.0000      0.0000  0.0000
atom =  18  type =  4  l = 0
 
 onsite density matrix
 
spin component  1
 
  0.8190
 
spin component  2
 
  0.8190
 
 occupancies and eigenvectors
 
  o =  0.8190  v =  1.0000  0.0000      0.0000  0.0000
  o =  0.8190  v =  0.0000  1.0000      0.0000  0.0000
atom =  19  type =  4  l = 0
 
 onsite density matrix
 
spin component  1
 
  0.8190
 
spin component  2
 
  0.8190
 
 occupancies and eigenvectors
 
  o =  0.8190  v =  1.0000  0.0000      0.0000  0.0000
  o =  0.8190  v =  0.0000  1.0000      0.0000  0.0000
atom =  20  type =  4  l = 0
 
 onsite density matrix
 
spin component  1
 
  0.8190
 
spin component  2
 
  0.8190
 
 occupancies and eigenvectors
 
  o =  0.8190  v =  1.0000  0.0000      0.0000  0.0000
  o =  0.8190  v =  0.0000  1.0000      0.0000  0.0000
atom =  21  type =  4  l = 0
 
 onsite density matrix
 
spin component  1
 
  0.8190
 
spin component  2
 
  0.8190
 
 occupancies and eigenvectors
 
  o =  0.8190  v =  1.0000  0.0000      0.0000  0.0000
  o =  0.8190  v =  0.0000  1.0000      0.0000  0.0000
atom =  22  type =  4  l = 0
 
 onsite density matrix
 
spin component  1
 
  0.8190
 
spin component  2
 
  0.8190
 
 occupancies and eigenvectors
 
  o =  0.8190  v =  1.0000  0.0000      0.0000  0.0000
  o =  0.8190  v =  0.0000  1.0000      0.0000  0.0000
atom =  23  type =  4  l = 0
 
 onsite density matrix
 
spin component  1
 
  0.8190
 
spin component  2
 
  0.8190
 
 occupancies and eigenvectors
 
  o =  0.8190  v =  1.0000  0.0000      0.0000  0.0000
  o =  0.8190  v =  0.0000  1.0000      0.0000  0.0000
atom =  24  type =  4  l = 0
 
 onsite density matrix
 
spin component  1
 
  0.8190
 
spin component  2
 
  0.8190
 
 occupancies and eigenvectors
 
  o =  0.8190  v =  1.0000  0.0000      0.0000  0.0000
  o =  0.8190  v =  0.0000  1.0000      0.0000  0.0000
atom =  25  type =  4  l = 0
 
 onsite density matrix
 
spin component  1
 
  0.8190
 
spin component  2
 
  0.8190
 
 occupancies and eigenvectors
 
  o =  0.8190  v =  1.0000  0.0000      0.0000  0.0000
  o =  0.8190  v =  0.0000  1.0000      0.0000  0.0000
     EDDAV:  cpu time    5.0959: real time    5.1206
 BZINTS: Fermi energy: 30.667822;186.000000 electrons
         Band energy:2731.031315;  BLOECHL correction: -0.226971
       DOS:  cpu time    0.0416: real time    0.0452
    --------------------------------------------
      LOOP:  cpu time    5.2279: real time    5.2578

 eigenvalue-minimisations  :  9752
 total energy-change (2. order) : 0.2917073E+04  (-0.6611959E+04)
 number of electron     186.0000000 magnetization      18.0000000
 augmentation part      186.0000000 magnetization      18.0000000

 Free energy of the ion-electron system (eV)
  ---------------------------------------------------
  alpha Z        PSCENC =       816.23646991
  Ewald energy   TEWEN  =    -12711.79119097
  -Hartree energ DENC   =     -2703.32094053
  -exchange      EXHF   =         0.00000000
  -V(xc)+E(xc)   XCENC  =       606.72309741
  PAW double counting   =     11556.14676195   -11598.79573466
  entropy T*S    EENTRO =         0.00000000
  eigenvalues    EBANDS =      2731.03131493
  atomic energy  EATOM  =     14220.84357809
  Solvation  Ediel_sol  =         0.00000000
  ---------------------------------------------------
  free energy    TOTEN  =      2917.07335614 eV

  energy without entropy =     2917.07335614  energy(sigma->0) =     2917.07335614


--------------------------------------------------------------------------------------------------------




--------------------------------------- Iteration      1(   2)  ---------------------------------------


     EDDAV:  cpu time    5.3098: real time    5.3337
 BZINTS: Fermi energy: 16.188928;186.000000 electrons
         Band energy: 792.376109;  BLOECHL correction: -0.056981
       DOS:  cpu time    0.0440: real time    0.0441
    --------------------------------------------
      LOOP:  cpu time    5.3538: real time    5.3778

 eigenvalue-minimisations  : 10312
 total energy-change (2. order) :-0.1938655E+04  (-0.1749989E+04)
 number of electron     186.0000000 magnetization      18.0000000
 augmentation part      186.0000000 magnetization      18.0000000

 Free energy of the ion-electron system (eV)
  ---------------------------------------------------
  alpha Z        PSCENC =       816.23646991
  Ewald energy   TEWEN  =    -12711.79119097
  -Hartree energ DENC   =     -2703.32094053
  -exchange      EXHF   =         0.00000000
  -V(xc)+E(xc)   XCENC  =       606.72309741
  PAW double counting   =     11556.14676195   -11598.79573466
  entropy T*S    EENTRO =         0.00000000
  eigenvalues    EBANDS =       792.37610859
  atomic energy  EATOM  =     14220.84357809
  Solvation  Ediel_sol  =         0.00000000
  ---------------------------------------------------
  free energy    TOTEN  =       978.41814980 eV

  energy without entropy =      978.41814980  energy(sigma->0) =      978.41814980


--------------------------------------------------------------------------------------------------------




--------------------------------------- Iteration      1(   3)  ---------------------------------------


     EDDAV:  cpu time    5.4148: real time    5.4402
 BZINTS: Fermi energy: 12.098871;186.000000 electrons
         Band energy:   6.416119;  BLOECHL correction: -0.019658
       DOS:  cpu time    0.0426: real time    0.0427
    --------------------------------------------
      LOOP:  cpu time    5.4574: real time    5.4829

 eigenvalue-minimisations  : 10624
 total energy-change (2. order) :-0.7859600E+03  (-0.7145567E+03)
 number of electron     186.0000000 magnetization      18.0000000
 augmentation part      186.0000000 magnetization      18.0000000

 Free energy of the ion-electron system (eV)
  ---------------------------------------------------
  alpha Z        PSCENC =       816.23646991
  Ewald energy   TEWEN  =    -12711.79119097
  -Hartree energ DENC   =     -2703.32094053
  -exchange      EXHF   =         0.00000000
  -V(xc)+E(xc)   XCENC  =       606.72309741
  PAW double counting   =     11556.14676195   -11598.79573466
  entropy T*S    EENTRO =         0.00000000
  eigenvalues    EBANDS =         6.41611856
  atomic energy  EATOM  =     14220.84357809
  Solvation  Ediel_sol  =         0.00000000
  ---------------------------------------------------
  free energy    TOTEN  =       192.45815977 eV

  energy without entropy =      192.45815977  energy(sigma->0) =      192.45815977


--------------------------------------------------------------------------------------------------------




--------------------------------------- Iteration      1(   4)  ---------------------------------------


     EDDAV:  cpu time    7.1736: real time    7.2034
 BZINTS: Fermi energy: 11.441133;186.000000 electrons
         Band energy:-328.952819;  BLOECHL correction: -0.014229
       DOS:  cpu time    0.0463: real time    0.0464
    --------------------------------------------
      LOOP:  cpu time    7.2200: real time    7.2499

 eigenvalue-minimisations  : 14872
 total energy-change (2. order) :-0.3353689E+03  (-0.3189082E+03)
 number of electron     186.0000000 magnetization      18.0000000
 augmentation part      186.0000000 magnetization      18.0000000

 Free energy of the ion-electron system (eV)
  ---------------------------------------------------
  alpha Z        PSCENC =       816.23646991
  Ewald energy   TEWEN  =    -12711.79119097
  -Hartree energ DENC   =     -2703.32094053
  -exchange      EXHF   =         0.00000000
  -V(xc)+E(xc)   XCENC  =       606.72309741
  PAW double counting   =     11556.14676195   -11598.79573466
  entropy T*S    EENTRO =         0.00000000
  eigenvalues    EBANDS =      -328.95281941
  atomic energy  EATOM  =     14220.84357809
  Solvation  Ediel_sol  =         0.00000000
  ---------------------------------------------------
  free energy    TOTEN  =      -142.91077820 eV

  energy without entropy =     -142.91077820  energy(sigma->0) =     -142.91077820


--------------------------------------------------------------------------------------------------------




--------------------------------------- Iteration      1(   5)  ---------------------------------------


     EDDAV:  cpu time    7.9662: real time    8.0007
 BZINTS: Fermi energy: 10.999809;186.000000 electrons
         Band energy:-397.722662;  BLOECHL correction: -0.026311
       DOS:  cpu time    0.0373: real time    0.0374
    CHARGE:  cpu time    0.2286: real time    0.2297
    MIXING:  cpu time    0.0033: real time    0.0035
    --------------------------------------------
      LOOP:  cpu time    8.2355: real time    8.2713

 eigenvalue-minimisations  : 16584
 total energy-change (2. order) :-0.6876984E+02  (-0.6664718E+02)
 number of electron     186.0000008 magnetization      15.4770136
 augmentation part       22.3696214 magnetization      10.9951154

 Broyden mixing:
  rms(total) = 0.66010E+01    rms(broyden)= 0.66006E+01
  rms(prec ) = 0.81799E+01
  weight for this iteration     100.00

 Free energy of the ion-electron system (eV)
  ---------------------------------------------------
  alpha Z        PSCENC =       816.23646991
  Ewald energy   TEWEN  =    -12711.79119097
  -Hartree energ DENC   =     -2703.32094053
  -exchange      EXHF   =         0.00000000
  -V(xc)+E(xc)   XCENC  =       606.72309741
  PAW double counting   =     11556.14676195   -11598.79573466
  entropy T*S    EENTRO =         0.00000000
  eigenvalues    EBANDS =      -397.72266215
  atomic energy  EATOM  =     14220.84357809
  Solvation  Ediel_sol  =         0.00000000
  ---------------------------------------------------
  free energy    TOTEN  =      -211.68062095 eV

  energy without entropy =     -211.68062095  energy(sigma->0) =     -211.68062095


--------------------------------------------------------------------------------------------------------




--------------------------------------- Iteration      1(   6)  ---------------------------------------


    POTLOK:  cpu time    0.0737: real time    0.0750
    SETDIJ:  cpu time    0.0135: real time    0.0135
atom =   1  type =  1  l = 0
 
 onsite density matrix
 
spin component  1
 
  1.0564
 
spin component  2
 
  1.0562
 
 occupancies and eigenvectors
 
  o =  1.0562  v =  0.0000  1.0000      0.0000  0.0000
  o =  1.0564  v =  1.0000  0.0000      0.0000  0.0000
atom =   2  type =  1  l = 0
 
 onsite density matrix
 
spin component  1
 
  1.0572
 
spin component  2
 
  1.0568
 
 occupancies and eigenvectors
 
  o =  1.0568  v =  0.0000  1.0000      0.0000  0.0000
  o =  1.0572  v =  1.0000  0.0000      0.0000  0.0000
atom =   3  type =  1  l = 0
 
 onsite density matrix
 
spin component  1
 
  1.0565
 
spin component  2
 
  1.0560
 
 occupancies and eigenvectors
 
  o =  1.0560  v =  0.0000  1.0000      0.0000  0.0000
  o =  1.0565  v =  1.0000  0.0000      0.0000  0.0000
atom =   4  type =  1  l = 0
 
 onsite density matrix
 
spin component  1
 
  1.0565
 
spin component  2
 
  1.0560
 
 occupancies and eigenvectors
 
  o =  1.0560  v =  0.0000  1.0000      0.0000  0.0000
  o =  1.0565  v =  1.0000  0.0000      0.0000  0.0000
atom =   5  type =  1  l = 0
 
 onsite density matrix
 
spin component  1
 
  1.0572
 
spin component  2
 
  1.0568
 
 occupancies and eigenvectors
 
  o =  1.0568  v =  0.0000  1.0000      0.0000  0.0000
  o =  1.0572  v =  1.0000  0.0000      0.0000  0.0000
atom =   6  type =  2  l = 2
 
 onsite density matrix
 
spin component  1
 
  0.9479  0.0016  0.0030 -0.0016 -0.0000
  0.0016  0.9498 -0.0034 -0.0004 -0.0037
  0.0030 -0.0034  0.4912  0.0034  0.0000
 -0.0016 -0.0004  0.0034  0.9498 -0.0037
 -0.0000 -0.0037  0.0000 -0.0037  0.3416
 
spin component  2
 
  0.0423 -0.0012 -0.0018  0.0012  0.0000
 -0.0012  0.0362  0.0023  0.0001  0.0025
 -0.0018  0.0023  0.3508 -0.0023  0.0000
  0.0012  0.0001 -0.0023  0.0362  0.0025
  0.0000  0.0025  0.0000  0.0025  0.4590
 
 occupancies and eigenvectors
 
  o =  0.0356  v =  0.0000  0.0000  0.0000  0.0000  0.0000  0.2435  0.6858 -0.0084 -0.6858 -0.0000      0.0000  0.0000  0.0000  0.0000  0.0000  0.0000  0.0000  0.0000  0.0000  0.0000
  o =  0.0363  v =  0.0000  0.0000  0.0000  0.0000  0.0000 -0.0000  0.7071  0.0000  0.7071 -0.0082      0.0000  0.0000  0.0000  0.0000  0.0000  0.0000  0.0000  0.0000  0.0000  0.0000
  o =  0.0427  v =  0.0000  0.0000  0.0000  0.0000  0.0000  0.9699 -0.1721  0.0083  0.1721 -0.0000      0.0000  0.0000  0.0000  0.0000  0.0000  0.0000  0.0000  0.0000  0.0000  0.0000
  o =  0.3415  v =  0.0000  0.0061 -0.0000  0.0061  1.0000  0.0000  0.0000  0.0000  0.0000  0.0000      0.0000  0.0000  0.0000  0.0000  0.0000  0.0000  0.0000  0.0000  0.0000  0.0000
  o =  0.3508  v =  0.0000  0.0000  0.0000  0.0000  0.0000 -0.0060  0.0072  0.9999 -0.0072 -0.0000      0.0000  0.0000  0.0000  0.0000  0.0000  0.0000  0.0000  0.0000  0.0000  0.0000
  o =  0.4590  v =  0.0000  0.0000  0.0000  0.0000  0.0000  0.0000  0.0058  0.0000  0.0058  1.0000      0.0000  0.0000  0.0000  0.0000  0.0000  0.0000  0.0000  0.0000  0.0000  0.0000
  o =  0.4911  v = -0.0067  0.0074  0.9999 -0.0074  0.0000  0.0000  0.0000  0.0000  0.0000  0.0000      0.0000  0.0000  0.0000  0.0000  0.0000  0.0000  0.0000  0.0000  0.0000  0.0000
  o =  0.9466  v =  0.8541 -0.3677  0.0111  0.3677 -0.0000  0.0000  0.0000  0.0000  0.0000  0.0000      0.0000  0.0000  0.0000  0.0000  0.0000  0.0000  0.0000  0.0000  0.0000  0.0000
  o =  0.9495  v = -0.0000  0.7071  0.0000  0.7071 -0.0087  0.0000  0.0000  0.0000  0.0000  0.0000      0.0000  0.0000  0.0000  0.0000  0.0000  0.0000  0.0000  0.0000  0.0000  0.0000
  o =  0.9516  v = -0.5200 -0.6040  0.0055  0.6040  0.0000  0.0000  0.0000  0.0000  0.0000  0.0000      0.0000  0.0000  0.0000  0.0000  0.0000  0.0000  0.0000  0.0000  0.0000  0.0000
atom =   7  type =  2  l = 2
 
 onsite density matrix
 
spin component  1
 
  0.9489  0.0016  0.0006 -0.0016 -0.0000
  0.0016  0.9518  0.0008  0.0000 -0.0023
  0.0006  0.0008  0.3922 -0.0008  0.0000
 -0.0016  0.0000 -0.0008  0.9518 -0.0023
 -0.0000 -0.0023  0.0000 -0.0023  0.3433
 
spin component  2
 
  0.0372 -0.0011 -0.0005  0.0011  0.0000
 -0.0011  0.0353 -0.0004  0.0001  0.0014
 -0.0005 -0.0004  0.4236  0.0004 -0.0000
  0.0011  0.0001  0.0004  0.0353  0.0014
  0.0000  0.0014 -0.0000  0.0014  0.4557
 
 occupancies and eigenvectors
 
  o =  0.0343  v =  0.0000  0.0000  0.0000  0.0000  0.0000 -0.4870 -0.6176 -0.0020  0.6176  0.0000      0.0000  0.0000  0.0000  0.0000  0.0000  0.0000  0.0000  0.0000  0.0000  0.0000
  o =  0.0354  v =  0.0000  0.0000  0.0000  0.0000  0.0000 -0.0000  0.7071 -0.0000  0.7071 -0.0046      0.0000  0.0000  0.0000  0.0000  0.0000  0.0000  0.0000  0.0000  0.0000  0.0000
  o =  0.0381  v =  0.0000  0.0000  0.0000  0.0000  0.0000  0.8734 -0.3444  0.0003  0.3444 -0.0000      0.0000  0.0000  0.0000  0.0000  0.0000  0.0000  0.0000  0.0000  0.0000  0.0000
  o =  0.3433  v =  0.0000  0.0038 -0.0000  0.0038  1.0000  0.0000  0.0000  0.0000  0.0000  0.0000      0.0000  0.0000  0.0000  0.0000  0.0000  0.0000  0.0000  0.0000  0.0000  0.0000
  o =  0.3922  v =  0.0010  0.0015 -1.0000 -0.0015 -0.0000  0.0000  0.0000  0.0000  0.0000  0.0000      0.0000  0.0000  0.0000  0.0000  0.0000  0.0000  0.0000  0.0000  0.0000  0.0000
  o =  0.4236  v =  0.0000  0.0000  0.0000  0.0000  0.0000  0.0012  0.0011 -1.0000 -0.0011 -0.0000      0.0000  0.0000  0.0000  0.0000  0.0000  0.0000  0.0000  0.0000  0.0000  0.0000
  o =  0.4557  v =  0.0000  0.0000  0.0000  0.0000  0.0000  0.0000  0.0032 -0.0000  0.0032  1.0000      0.0000  0.0000  0.0000  0.0000  0.0000  0.0000  0.0000  0.0000  0.0000  0.0000
  o =  0.9476  v =  0.8737 -0.3440 -0.0001  0.3440 -0.0000  0.0000  0.0000  0.0000  0.0000  0.0000      0.0000  0.0000  0.0000  0.0000  0.0000  0.0000  0.0000  0.0000  0.0000  0.0000
  o =  0.9518  v =  0.0000 -0.7071  0.0000 -0.7071  0.0054  0.0000  0.0000  0.0000  0.0000  0.0000      0.0000  0.0000  0.0000  0.0000  0.0000  0.0000  0.0000  0.0000  0.0000  0.0000
  o =  0.9530  v = -0.4865 -0.6178 -0.0023  0.6178  0.0000  0.0000  0.0000  0.0000  0.0000  0.0000      0.0000  0.0000  0.0000  0.0000  0.0000  0.0000  0.0000  0.0000  0.0000  0.0000
atom =   8  type =  2  l = 2
 
 onsite density matrix
 
spin component  1
 
  0.9489  0.0016  0.0006 -0.0016 -0.0000
  0.0016  0.9518  0.0008  0.0000 -0.0023
  0.0006  0.0008  0.3922 -0.0008 -0.0000
 -0.0016  0.0000 -0.0008  0.9518 -0.0023
 -0.0000 -0.0023 -0.0000 -0.0023  0.3433
 
spin component  2
 
  0.0372 -0.0011 -0.0005  0.0011  0.0000
 -0.0011  0.0353 -0.0004  0.0001  0.0014
 -0.0005 -0.0004  0.4236  0.0004 -0.0000
  0.0011  0.0001  0.0004  0.0353  0.0014
  0.0000  0.0014 -0.0000  0.0014  0.4557
 
 occupancies and eigenvectors
 
  o =  0.0343  v =  0.0000  0.0000  0.0000  0.0000  0.0000 -0.4870 -0.6176 -0.0020  0.6176  0.0000      0.0000  0.0000  0.0000  0.0000  0.0000  0.0000  0.0000  0.0000  0.0000  0.0000
  o =  0.0354  v =  0.0000  0.0000  0.0000  0.0000  0.0000 -0.0000  0.7071 -0.0000  0.7071 -0.0046      0.0000  0.0000  0.0000  0.0000  0.0000  0.0000  0.0000  0.0000  0.0000  0.0000
  o =  0.0381  v =  0.0000  0.0000  0.0000  0.0000  0.0000  0.8734 -0.3444  0.0003  0.3444 -0.0000      0.0000  0.0000  0.0000  0.0000  0.0000  0.0000  0.0000  0.0000  0.0000  0.0000
  o =  0.3433  v = -0.0000 -0.0038 -0.0000 -0.0038 -1.0000  0.0000  0.0000  0.0000  0.0000  0.0000      0.0000  0.0000  0.0000  0.0000  0.0000  0.0000  0.0000  0.0000  0.0000  0.0000
[...]
  0.000  -0.000   0.000   0.000   0.000  -0.000  -0.000  -0.000   0.000   0.000  -0.000   0.000   0.000   0.000   0.000  -0.000
  0.000  -0.000  -0.000   0.000  -0.000   0.000  -0.000   0.000   0.000   0.000   0.000   0.000  -0.000   0.000   0.000   0.000
  0.000   0.000   0.000  -0.000  -0.000  -0.000   0.000   0.000  -0.000   0.000   0.000  -0.000   0.000  -0.000   0.000  -0.000
  0.000  -0.000  -0.000  -0.000  -0.000   0.000   0.000   0.000   0.000   0.000  -0.000   0.000   0.000   0.000   0.000   0.000
  0.000   0.003   0.000  -0.000   0.000   0.000   0.000   0.000  -0.003   0.000   0.013  -0.000   0.000   0.001   0.000  -0.005
 -0.000  -0.001   0.000   0.000   0.000   0.000   0.000   0.000   0.000  -0.000  -0.001   0.014   0.001   0.000   0.001   0.000
  0.000   0.003   0.000   0.000  -0.000   0.000   0.000  -0.000   0.013  -0.001   0.025   0.001  -0.000  -0.005   0.000  -0.009
  0.000   0.001   0.000  -0.000   0.000   0.000   0.000   0.000  -0.000   0.014   0.001  -0.000   0.001  -0.000  -0.006  -0.000
 -0.000  -0.000   0.000   0.000   0.000   0.000   0.000   0.000   0.000   0.001  -0.000   0.001   0.023  -0.000  -0.001   0.000
 -0.000  -0.002   0.000   0.000  -0.000   0.000   0.000  -0.000   0.001   0.000  -0.005  -0.000  -0.000  -0.001  -0.000   0.002
  0.000   0.000   0.000   0.000   0.000  -0.000   0.000   0.000   0.000   0.001   0.000  -0.006  -0.001  -0.000  -0.000  -0.000
 -0.000  -0.001   0.000  -0.000   0.000   0.000   0.000  -0.000  -0.005   0.000  -0.009  -0.000   0.000   0.002  -0.000   0.003
 -0.000  -0.000   0.000   0.000   0.000  -0.000   0.000   0.000  -0.000  -0.006  -0.000   0.001  -0.001   0.000   0.002   0.000
  0.000   0.000   0.000   0.000   0.000   0.000   0.000  -0.000  -0.000  -0.000   0.000  -0.000  -0.009   0.000   0.000  -0.000
  0.000   0.000   0.000   0.000   0.000   0.000  -0.000  -0.000   0.000  -0.000  -0.000   0.000   0.000  -0.000   0.000   0.000
  0.000   0.000  -0.000  -0.000   0.000   0.000  -0.001  -0.000   0.000   0.000   0.000   0.000   0.000  -0.000   0.000  -0.000
  0.000   0.000   0.000   0.000  -0.000   0.000   0.000  -0.000  -0.000   0.000   0.000  -0.000   0.000  -0.000   0.000   0.000
  0.000  -0.000  -0.000  -0.000   0.000  -0.000  -0.001   0.000   0.000   0.000   0.000   0.000   0.000   0.000  -0.000   0.000
  0.000   0.000  -0.000  -0.000   0.000  -0.000  -0.000   0.000   0.000   0.000   0.000  -0.000   0.000   0.000   0.000   0.000
  0.000   0.000   0.000   0.000   0.000  -0.000   0.000  -0.000   0.000   0.000   0.000   0.000   0.000   0.000   0.000   0.000
  0.000   0.000  -0.000   0.000  -0.000   0.000  -0.000  -0.000   0.000   0.000   0.000   0.000   0.000  -0.000   0.000  -0.000
  0.000   0.000   0.000  -0.000  -0.000  -0.001   0.000   0.000   0.000   0.000  -0.000   0.000  -0.000  -0.000   0.000   0.000
  0.000   0.000   0.000  -0.001  -0.000  -0.000   0.002   0.000   0.000   0.000   0.000   0.000   0.000   0.000   0.000   0.000
  0.000   0.000   0.000  -0.000  -0.000  -0.000  -0.000   0.001   0.000   0.000   0.000   0.000  -0.000   0.000   0.000   0.000
  0.000   0.000   0.000  -0.000  -0.000   0.000   0.001  -0.000   0.000  -0.000  -0.000   0.000   0.000   0.000   0.000   0.000
  0.000   0.000  -0.000   0.000   0.000   0.001   0.000  -0.000   0.000  -0.000   0.000  -0.000  -0.000   0.000   0.000   0.000
  0.000   0.000  -0.000   0.000  -0.000   0.000  -0.000   0.000   0.000   0.000   0.000   0.000   0.000   0.000   0.000   0.000
  0.000   0.000   0.000  -0.000  -0.000  -0.000   0.000   0.001   0.000   0.000   0.000  -0.000   0.000   0.000   0.000  -0.000


------------------------ aborting loop because EDIFF is reached ----------------------------------------


 


 total charge     
 
# of ion       s       p       d       f       tot
--------------------------------------------------
    1        1.999   5.697   0.484   0.188   8.368
    2        1.999   5.698   0.485   0.189   8.371
    3        1.999   5.698   0.485   0.189   8.371
    4        1.999   5.698   0.485   0.189   8.371
    5        1.999   5.698   0.485   0.189   8.372
    6        0.338   0.520   4.891   0.000   5.749
    7        0.347   0.546   4.865   0.000   5.757
    8        0.347   0.546   4.865   0.000   5.757
    9        0.389   0.557   8.321   0.000   9.267
   10        0.389   0.557   8.321   0.000   9.267
   11        1.568   3.451   0.000   0.000   5.019
   12        1.568   3.451   0.000   0.000   5.019
   13        1.560   3.454   0.000   0.000   5.014
   14        1.555   3.452   0.000   0.000   5.007
   15        1.560   3.454   0.000   0.000   5.014
   16        1.561   3.465   0.000   0.000   5.026
   17        1.560   3.464   0.000   0.000   5.024
   18        1.563   3.452   0.000   0.000   5.015
   19        1.563   3.452   0.000   0.000   5.015
   20        1.560   3.464   0.000   0.000   5.024
   21        1.563   3.452   0.000   0.000   5.015
   22        1.560   3.464   0.000   0.000   5.024
   23        1.561   3.465   0.000   0.000   5.026
   24        1.560   3.464   0.000   0.000   5.024
   25        1.563   3.452   0.000   0.000   5.015
--------------------------------------------------
tot         35.227  83.072  33.687   0.943 152.930

 


 magnetization (x)
 
# of ion       s       p       d       f       tot
--------------------------------------------------
    1        0.000   0.001   0.007   0.004   0.012
    2        0.001   0.001   0.010   0.004   0.016
    3        0.000   0.001   0.008   0.004   0.014
    4        0.000   0.001   0.008   0.004   0.014
    5        0.001   0.001   0.010   0.004   0.016
    6        0.031   0.035   3.577   0.000   3.643
    7        0.024   0.029   3.359   0.000   3.412
    8        0.024   0.029   3.359   0.000   3.412
    9        0.009  -0.002   1.688   0.000   1.695
   10        0.009  -0.002   1.688   0.000   1.695
   11        0.008  -0.048   0.000   0.000  -0.040
   12        0.008  -0.048   0.000   0.000  -0.040
   13        0.005  -0.002   0.000   0.000   0.003
   14        0.006   0.025   0.000   0.000   0.031
   15        0.005  -0.002   0.000   0.000   0.003
   16        0.002  -0.013   0.000   0.000  -0.011
   17        0.005   0.000   0.000   0.000   0.005
   18        0.005  -0.036   0.000   0.000  -0.031
   19        0.005  -0.036   0.000   0.000  -0.031
   20        0.005   0.000   0.000   0.000   0.005
   21        0.005  -0.036   0.000   0.000  -0.031
   22        0.005   0.000   0.000   0.000   0.005
   23        0.002  -0.013   0.000   0.000  -0.011
   24        0.005   0.000   0.000   0.000   0.005
   25        0.005  -0.036   0.000   0.000  -0.031
--------------------------------------------------
tot          0.173  -0.150  13.714   0.021  13.758

 
    CHARGE:  cpu time    0.2269: real time    0.2283
    FORLOC:  cpu time    0.0090: real time    0.0090
    FORNL :  cpu time    1.4152: real time    1.4208
    STRESS:  cpu time    4.2504: real time    4.2747
    FORCOR:  cpu time    0.0828: real time    0.0830
    FORHAR:  cpu time    0.0165: real time    0.0166
    MIXING:  cpu time    0.0052: real time    0.0052
    OFIELD:  cpu time    0.0001: real time    0.0002

  FORCE on cell =-STRESS in cart. coord.  units (eV):
  Direction    XX          YY          ZZ          XY          YZ          ZX
  --------------------------------------------------------------------------------------
  Alpha Z   816.23647   816.23647   816.23647
  Ewald   -4223.08916 -4223.08916 -4265.64596     6.11349    -4.77564     4.77564
  Hartree   925.13561   925.13561   921.15403     5.96120    -3.91864     3.91865
  E(xc)    -861.66550  -861.66549  -861.68537    -0.00820    -0.00180     0.00178
  Local    -528.92130  -528.92114  -492.27330   -11.81044     8.84819    -8.84852
  n-local   340.93527   340.93505   339.68209     0.14160     0.02725    -0.03733
  augment   334.23302   334.23284   337.69532    -0.03453    -0.02459     0.02545
  Kinetic  3197.12842  3197.13545  3204.96345    -0.35444    -0.13405     0.15942
  Fock        0.00000     0.00000     0.00000     0.00000     0.00000     0.00000
  -------------------------------------------------------------------------------------
  Total      -0.00377    -0.00377     0.12674     0.00851     0.01304    -0.01304
  in kB      -0.02053    -0.02053     0.68922     0.04628     0.07091    -0.07091
  external pressure =        0.22 kB  Pullay stress =        0.00 kB


 VOLUME and BASIS-vectors are now :
 -----------------------------------------------------------------------------
  energy-cutoff  :      520.00
  volume of cell :      294.63
      direct lattice vectors                 reciprocal lattice vectors
    -3.876541843 -3.876541843  0.000000000    -0.154774395 -0.103187479 -0.051031045
    -3.878508239  3.878508239  3.920756010    -0.103139496  0.103139496  0.050996602
     0.000325713  3.876216130 -7.838902390    -0.051586916  0.051586916 -0.102062091

  length of vectors
     5.482258049  6.742253333  8.744909506     0.192890997  0.154519140  0.125455531


 FORCES acting on ions
    electron-ion (+dipol)            ewald-force                    non-local-force                 convergence-correction
 -----------------------------------------------------------------------------------------------
   -.147E-04 -.371E-05 -.209E-04   0.301E-11 -.124E-10 -.279E-10   0.468E-19 0.000E+00 0.108E-18   -.115E-05 -.179E-05 0.802E-06
   0.211E+02 -.211E+02 -.285E+02   -.209E+02 0.209E+02 0.282E+02   -.159E+00 0.159E+00 0.266E+00   0.373E-02 -.373E-02 0.622E-02
   0.288E+02 -.288E+02 0.308E+02   -.284E+02 0.284E+02 -.304E+02   -.315E+00 0.315E+00 -.368E+00   -.307E-02 0.306E-02 -.128E-01
   -.288E+02 0.288E+02 -.308E+02   0.284E+02 -.284E+02 0.304E+02   0.315E+00 -.315E+00 0.368E+00   0.306E-02 -.307E-02 0.128E-01
   -.211E+02 0.211E+02 0.285E+02   0.209E+02 -.209E+02 -.282E+02   0.159E+00 -.159E+00 -.266E+00   -.373E-02 0.373E-02 -.622E-02
   0.155E-04 0.474E-05 0.867E-05   -.199E-11 0.540E-11 0.771E-11   -.817E-21 0.678E-20 0.000E+00   0.267E-06 -.256E-06 0.355E-06
   -.246E+02 0.246E+02 0.174E+01   0.242E+02 -.242E+02 -.146E+01   0.440E+00 -.440E+00 -.271E+00   0.298E-02 -.298E-02 -.433E-02
   0.246E+02 -.246E+02 -.174E+01   -.242E+02 0.242E+02 0.146E+01   -.440E+00 0.440E+00 0.271E+00   -.298E-02 0.298E-02 0.433E-02
   -.520E+01 0.520E+01 -.209E+02   0.461E+01 -.461E+01 0.198E+02   0.618E+00 -.618E+00 0.119E+01   0.378E-02 -.378E-02 0.128E-01
   0.520E+01 -.520E+01 0.209E+02   -.461E+01 0.461E+01 -.198E+02   -.618E+00 0.618E+00 -.119E+01   -.378E-02 0.378E-02 -.128E-01
   -.962E+01 0.962E+01 0.755E+01   0.976E+01 -.976E+01 -.104E+02   -.168E+00 0.168E+00 0.292E+01   0.249E-02 -.249E-02 0.207E-01
   0.962E+01 -.962E+01 -.755E+01   -.976E+01 0.976E+01 0.104E+02   0.168E+00 -.168E+00 -.292E+01   -.249E-02 0.249E-02 -.207E-01
   0.976E+01 -.976E+01 -.460E+02   -.102E+02 0.102E+02 0.421E+02   0.493E+00 -.493E+00 0.383E+01   0.156E-02 -.156E-02 -.467E-02
   0.247E-04 0.263E-04 -.250E-05   0.469E-11 -.629E-11 -.193E-10   -.109E-19 0.000E+00 -.108E-18   0.219E-06 -.279E-06 0.664E-06
   -.976E+01 0.976E+01 0.460E+02   0.102E+02 -.102E+02 -.421E+02   -.493E+00 0.493E+00 -.383E+01   -.156E-02 0.156E-02 0.467E-02
   0.280E-04 0.895E-05 0.114E-04   -.388E-11 -.131E-10 0.954E-12   0.289E-20 -.271E-19 -.542E-19   -.346E-06 0.349E-06 -.272E-06
   -.204E+01 -.426E+02 -.938E+01   0.224E+01 0.378E+02 0.955E+01   -.206E+00 0.478E+01 -.183E+00   0.350E-02 -.270E-01 0.179E-02
   0.117E+02 -.361E+02 0.110E+01   -.120E+02 0.302E+02 -.733E+00   0.299E+00 0.593E+01 -.402E+00   -.246E-02 -.528E-02 -.301E-02
   -.117E+02 0.361E+02 -.110E+01   0.120E+02 -.302E+02 0.733E+00   -.299E+00 -.593E+01 0.402E+00   0.246E-02 0.528E-02 0.301E-02
   0.204E+01 0.426E+02 0.938E+01   -.224E+01 -.378E+02 -.955E+01   0.206E+00 -.478E+01 0.183E+00   -.350E-02 0.270E-01 -.179E-02
   -.361E+02 0.117E+02 -.110E+01   0.302E+02 -.120E+02 0.733E+00   0.593E+01 0.299E+00 0.402E+00   -.528E-02 -.246E-02 0.301E-02
   -.426E+02 -.204E+01 0.938E+01   0.378E+02 0.224E+01 -.955E+01   0.478E+01 -.206E+00 0.183E+00   -.270E-01 0.350E-02 -.179E-02
   0.155E-04 0.155E-04 0.146E-04   0.121E-10 0.311E-11 -.241E-11   -.871E-20 0.271E-19 -.542E-19   -.330E-06 0.348E-06 -.275E-06
   0.426E+02 0.204E+01 -.938E+01   -.378E+02 -.224E+01 0.955E+01   -.478E+01 0.206E+00 -.183E+00   0.270E-01 -.350E-02 0.179E-02
   0.361E+02 -.117E+02 0.110E+01   -.302E+02 0.120E+02 -.733E+00   -.593E+01 -.299E+00 -.402E+00   0.528E-02 0.246E-02 -.301E-02
 -----------------------------------------------------------------------------------------------
   0.519E-04 0.970E-04 0.103E-03   0.568E-13 0.178E-14 0.125E-13   0.178E-14 0.222E-15 -.888E-15   -.286E-05 -.298E-05 0.112E-06
 
 
 POSITION                                       TOTAL-FORCE (eV/Angst)
 -----------------------------------------------------------------------------------
     -3.87674      0.00020     -3.91919        -0.000000      0.000000      0.000000
     -3.86238     -0.01416     -0.02930         0.015137     -0.015137     -0.041761
     -3.84297      3.84297     -3.88205         0.082019     -0.082019      0.019804
     -3.91247      3.91247     -0.03558        -0.082019      0.082019     -0.019804
     -3.89110      0.01456     -7.80908        -0.015137      0.015137      0.041761
     -5.81599      1.93945     -1.95881        -0.000000      0.000000      0.000000
     -5.81996      1.94341      1.97713         0.065138     -0.065138      0.002358
     -1.93582      1.93582      1.94415        -0.065138      0.065138     -0.002358
     -1.94034      1.94034     -1.96318         0.029972     -0.029972      0.042023
     -1.93660      1.93660     -5.87520        -0.029972      0.029972     -0.042023
     -5.81605      1.93951      0.05339        -0.023078      0.023078      0.075751
     -5.81593      1.93939     -3.97101         0.023078     -0.023078     -0.075751
     -1.93725      1.93725      0.01408         0.027329     -0.027329      0.010509
     -1.93847      1.93847     -3.91919        -0.000000      0.000000      0.000000
     -5.81852      1.94198      3.90720        -0.027329      0.027329     -0.010509
     -5.81616      0.00134      1.96064        -0.000000      0.000000      0.000000
     -5.81530      0.03639     -1.95174        -0.003371     -0.020831     -0.011315
     -1.94289      3.92416     -5.88337         0.007818     -0.003660     -0.035142
     -1.93404     -0.04722     -1.95501        -0.007818      0.003660      0.035142
     -5.81669      3.84252     -1.96589         0.003371      0.020831      0.011315
     -3.82932     -1.94250     -1.95501        -0.003660      0.007818      0.035142
     -3.84252      5.81669     -1.96589        -0.020831     -0.003371      0.011315
     -3.87789      1.93961      1.96064        -0.000000      0.000000      0.000000
     -3.91293      1.93875     -1.95174         0.020831      0.003371     -0.011315
     -3.92416      1.94289     -5.88337         0.003660     -0.007818     -0.035142
 -----------------------------------------------------------------------------------
    total drift:                                0.000049      0.000094      0.000103


--------------------------------------------------------------------------------------------------------



  FREE ENERGIE OF THE ION-ELECTRON SYSTEM (eV)
  ---------------------------------------------------
  free  energy   TOTEN  =      -187.02247264 eV

  energy  without entropy=     -187.02247264  energy(sigma->0) =     -187.02247264
 


--------------------------------------------------------------------------------------------------------


    POTLOK:  cpu time    0.0857: real time    0.0861


--------------------------------------------------------------------------------------------------------


     LOOP+:  cpu time  127.0355: real time  127.6564
    4ORBIT:  cpu time    0.0000: real time    0.0000
 


 total charge     
 
# of ion       s       p       d       f       tot
--------------------------------------------------
    1        1.999   5.697   0.484   0.188   8.368
    2        1.999   5.698   0.485   0.189   8.371
    3        1.999   5.698   0.485   0.189   8.371
    4        1.999   5.698   0.485   0.189   8.371
    5        1.999   5.698   0.485   0.189   8.372
    6        0.338   0.520   4.891   0.000   5.749
    7        0.347   0.546   4.865   0.000   5.757
    8        0.347   0.546   4.865   0.000   5.757
    9        0.389   0.557   8.321   0.000   9.267
   10        0.389   0.557   8.321   0.000   9.267
   11        1.568   3.451   0.000   0.000   5.019
   12        1.568   3.451   0.000   0.000   5.019
   13        1.560   3.454   0.000   0.000   5.014
   14        1.555   3.452   0.000   0.000   5.007
   15        1.560   3.454   0.000   0.000   5.014
   16        1.561   3.465   0.000   0.000   5.026
   17        1.560   3.464   0.000   0.000   5.024
   18        1.563   3.452   0.000   0.000   5.015
   19        1.563   3.452   0.000   0.000   5.015
   20        1.560   3.464   0.000   0.000   5.024
   21        1.563   3.452   0.000   0.000   5.015
   22        1.560   3.464   0.000   0.000   5.024
   23        1.561   3.465   0.000   0.000   5.026
   24        1.560   3.464   0.000   0.000   5.024
   25        1.563   3.452   0.000   0.000   5.015
--------------------------------------------------
tot         35.227  83.072  33.687   0.943 152.930

 


 magnetization (x)
 
# of ion       s       p       d       f       tot
--------------------------------------------------
    1        0.000   0.001   0.007   0.004   0.012
    2        0.001   0.001   0.010   0.004   0.016
    3        0.000   0.001   0.008   0.004   0.014
    4        0.000   0.001   0.008   0.004   0.014
    5        0.001   0.001   0.010   0.004   0.016
    6        0.031   0.035   3.577   0.000   3.643
    7        0.024   0.029   3.359   0.000   3.412
    8        0.024   0.029   3.359   0.000   3.412
    9        0.009  -0.002   1.688   0.000   1.695
   10        0.009  -0.002   1.688   0.000   1.695
   11        0.008  -0.048   0.000   0.000  -0.040
   12        0.008  -0.048   0.000   0.000  -0.040
   13        0.005  -0.002   0.000   0.000   0.003
   14        0.006   0.025   0.000   0.000   0.031
   15        0.005  -0.002   0.000   0.000   0.003
   16        0.002  -0.013   0.000   0.000  -0.011
   17        0.005   0.000   0.000   0.000   0.005
   18        0.005  -0.036   0.000   0.000  -0.031
   19        0.005  -0.036   0.000   0.000  -0.031
   20        0.005   0.000   0.000   0.000   0.005
   21        0.005  -0.036   0.000   0.000  -0.031
   22        0.005   0.000   0.000   0.000   0.005
   23        0.002  -0.013   0.000   0.000  -0.011
   24        0.005   0.000   0.000   0.000   0.005
   25        0.005  -0.036   0.000   0.000  -0.031
--------------------------------------------------
tot          0.173  -0.150  13.714   0.021  13.758

 
 BZINTS: Fermi energy:  7.869403;186.000000 electrons
         Band energy:-293.892799;  BLOECHL correction:  0.000000

 total amount of memory used by VASP MPI-rank0    78735. kBytes
=======================================================================

   base      :      30000. kBytes
   nonlr-proj:       6553. kBytes
   fftplans  :       2818. kBytes
   grid      :       8208. kBytes
   one-center:        294. kBytes
   wavefun   :      30862. kBytes
 
  
  
 General timing and accounting informations for this job:
 ========================================================
  
                  Total CPU time used (sec):      136.746
                            User time (sec):      133.788
                          System time (sec):        2.958
                         Elapsed time (sec):      137.487
  
                   Maximum memory used (kb):      130344.
                   Average memory used (kb):           0.
  
                          Minor page faults:        37957
                          Major page faults:            0
                 Voluntary context switches:         2587
