       N       E                     dE             d eps       ncg     rms          rms(c)
DAV:   1     0.226669454888E+04    0.22667E+04   -0.54385E+04  2514   0.245E+03
DAV:   2     0.719215084838E+03   -0.15475E+04   -0.13904E+04  2632   0.600E+02
DAV:   3     0.113309034801E+03   -0.60591E+03   -0.54893E+03  2720   0.310E+02
DAV:   4    -0.125074020376E+03   -0.23838E+03   -0.22648E+03  3840   0.161E+02
DAV:   5    -0.168835134548E+03   -0.43761E+02   -0.41482E+02  4316   0.795E+01    0.603E+01
RMM:   6    -0.150803158704E+03    0.18032E+02   -0.47537E+02  4020   0.972E+01    0.848E+01
RMM:   7    -0.149210331011E+03    0.15928E+01   -0.72893E+01  4057   0.329E+01    0.409E+01
RMM:   8    -0.144634618332E+03    0.45757E+01   -0.46208E+01  3152   0.406E+01    0.216E+01
RMM:   9    -0.146588794286E+03   -0.19542E+01   -0.21014E+01  3858   0.160E+01    0.195E+01
RMM:  10    -0.146772369709E+03   -0.18358E+00   -0.34766E+00  4008   0.778E+00    0.134E+01
RMM:  11    -0.146629394863E+03    0.14297E+00   -0.19784E+00  3987   0.496E+00    0.697E+00
RMM:  12    -0.146591082076E+03    0.38313E-01   -0.13558E+00  4050   0.446E+00    0.551E+00
RMM:  13    -0.146640271792E+03   -0.49190E-01   -0.55395E-01  4064   0.219E+00    0.343E+00
RMM:  14    -0.146669640510E+03   -0.29369E-01   -0.17563E-01  3797   0.168E+00    0.280E+00
RMM:  15    -0.146674063842E+03   -0.44233E-02   -0.71382E-02  3637   0.933E-01    0.120E+00
RMM:  16    -0.146672088250E+03    0.19756E-02   -0.43659E-02  3490   0.746E-01    0.780E-01
RMM:  17    -0.146675557932E+03   -0.34697E-02   -0.40739E-02  3456   0.662E-01    0.235E-01
RMM:  18    -0.146675690147E+03   -0.13222E-03   -0.72171E-03  2371   0.424E-01
   1 F= -.14667569E+03 E0= -.14667569E+03  d E =0.000000E+00  mag=    10.0179
