 vasp.5.4.4.18Apr17-6-g9f103f2a35 (build Oct 03 2018 13:58:34) complex          
  
 executed on             LinuxIFC date 2019.06.04  00:43:43
 running on   40 total cores
 distrk:  each k-point on   20 cores,    2 groups
 distr:  one band on NCORES_PER_BAND=  10 cores,    2 groups


--------------------------------------------------------------------------------------------------------


 INCAR:
 POTCAR:    PAW_PBE La 06Sep2000                  
 POTCAR:    PAW_PBE Mn 06Sep2000                  
 POTCAR:    PAW_PBE Ni 02Aug2007                  
 POTCAR:    PAW_PBE O 08Apr2002                   

 ----------------------------------------------------------------------------- 
|                                                                             |
|           W    W    AA    RRRRR   N    N  II  N    N   GGGG   !!!           |
|           W    W   A  A   R    R  NN   N  II  NN   N  G    G  !!!           |
|           W    W  A    A  R    R  N N  N  II  N N  N  G       !!!           |
|           W WW W  AAAAAA  RRRRR   N  N N  II  N  N N  G  GGG   !            |
|           WW  WW  A    A  R   R   N   NN  II  N   NN  G    G                |
|           W    W  A    A  R    R  N    N  II  N    N   GGGG   !!!           |
|                                                                             |
|      You have enabled k-point parallelism (KPAR>1).                         |
|      This developmental code was originally  written by Paul Kent at ORNL,  |
|      and carefully double checked in Vienna.                                |
|      GW as well as linear response parallelism added by Martijn Marsman     |
|      and Georg Kresse.                                                      |
|      Carefully verify results versus KPAR=1.                                |
|      Report problems to Paul Kent and Vienna.                               |
|                                                                             |
 ----------------------------------------------------------------------------- 

 POTCAR:    PAW_PBE La 06Sep2000                  
   VRHFIN =La : [core=Kr4d]                                                     
   LEXCH  = PE                                                                  
   EATOM  =   865.9763 eV,   63.6475 Ry                                         
                                                                                
   TITEL  = PAW_PBE La 06Sep2000                                                
   LULTRA =        F    use ultrasoft PP ?                                      
   IUNSCR =        1    unscreen: 0-lin 1-nonlin 2-no                           
   RPACOR =    2.300    partial core radius                                     
   POMASS =  138.900; ZVAL   =   11.000    mass and valenz                      
   RCORE  =    2.800    outmost cutoff radius                                   
   RWIGS  =    2.900; RWIGS  =    1.535    wigner-seitz radius (au A)           
   ENMAX  =  219.292; ENMIN  =  164.469 eV                                      
   RCLOC  =    1.601    cutoff for local pot                                    
   LCOR   =        T    correct aug charges                                     
   LPAW   =        T    paw PP                                                  
   EAUG   =  583.575                                                            
   DEXC   =    0.000                                                            
   RMAX   =    2.853    core radius for proj-oper                               
   RAUG   =    1.300    factor for augmentation sphere                          
   RDEP   =    2.802    radius for radial grids                                 
   RDEPT  =    2.156    core radius for aug-charge                              
                                                                                
   Atomic configuration                                                         
   14 entries                                                                   
     n  l   j            E        occ.                                          
     1  0  0.50    -38741.0879   2.0000                                         
     2  0  0.50     -6166.6801   2.0000                                         
     2  1  1.50     -5526.1593   6.0000                                         
     3  0  0.50     -1319.0200   2.0000                                         
     3  1  1.50     -1114.5963   6.0000                                         
     3  2  2.50      -821.1793  10.0000                                         
     4  0  0.50      -266.3851   2.0000                                         
     4  1  1.50      -199.9276   6.0000                                         
     4  2  2.50      -103.8239  10.0000                                         
     5  0  0.50       -38.9172   2.0000                                         
     6  0  0.50        -3.6792   2.0000                                         
     5  1  1.50       -22.3948   6.0000                                         
     5  2  2.50        -3.0911   0.9999                                         
     4  3  2.50        -4.3603   0.0001                                         
   Description                                                                  
     l       E           TYP  RCUT    TYP  RCUT                                 
     0    -38.9171645     23  2.800                                             
     0     -3.6792381     23  2.800                                             
     1    -22.3948300     23  2.500                                             
     1     27.2116520     23  2.500                                             
     2     -3.0910934     23  2.500                                             
     2      1.0119135     23  2.500                                             
     3     -4.3602911     23  2.800                                             
     3     -5.7208737     23  2.800                                             
  local pseudopotential read in
  partial core-charges read in
  partial kinetic energy density read in
  atomic valenz-charges read in
  non local Contribution for L=           0  read in
    real space projection operators read in
  non local Contribution for L=           0  read in
    real space projection operators read in
  non local Contribution for L=           1  read in
    real space projection operators read in
  non local Contribution for L=           1  read in
    real space projection operators read in
  non local Contribution for L=           2  read in
    real space projection operators read in
  non local Contribution for L=           2  read in
    real space projection operators read in
  non local Contribution for L=           3  read in
    real space projection operators read in
  non local Contribution for L=           3  read in
    real space projection operators read in
    PAW grid and wavefunctions read in
 
   number of l-projection  operators is LMAX  =           8
   number of lm-projection operators is LMMAX =          32
 
 POTCAR:    PAW_PBE Mn 06Sep2000                  
   VRHFIN =Mn: d6 s1                                                            
   LEXCH  = PE                                                                  
   EATOM  =   416.7541 eV,   30.6306 Ry                                         
                                                                                
   TITEL  = PAW_PBE Mn 06Sep2000                                                
   LULTRA =        F    use ultrasoft PP ?                                      
   IUNSCR =        1    unscreen: 0-lin 1-nonlin 2-no                           
   RPACOR =    2.000    partial core radius                                     
   POMASS =   54.938; ZVAL   =    7.000    mass and valenz                      
   RCORE  =    2.300    outmost cutoff radius                                   
   RWIGS  =    2.500; RWIGS  =    1.323    wigner-seitz radius (au A)           
   ENMAX  =  269.864; ENMIN  =  202.398 eV                                      
   RCLOC  =    1.725    cutoff for local pot                                    
   LCOR   =        T    correct aug charges                                     
   LPAW   =        T    paw PP                                                  
   EAUG   =  500.711                                                            
   DEXC   =    0.000                                                            
   RMAX   =    2.343    core radius for proj-oper                               
   RAUG   =    1.300    factor for augmentation sphere                          
   RDEP   =    2.338    radius for radial grids                                 
   RDEPT  =    1.911    core radius for aug-charge                              
                                                                                
   Atomic configuration                                                         
    9 entries                                                                   
     n  l   j            E        occ.                                          
     1  0  0.50     -6424.8288   2.0000                                         
     2  0  0.50      -739.1154   2.0000                                         
     2  1  1.50      -625.3949   6.0000                                         
     3  0  0.50       -81.6100   2.0000                                         
     3  1  1.50       -50.4667   6.0000                                         
     3  2  2.50        -3.3745   6.0000                                         
     4  0  0.50        -4.1331   1.0000                                         
     4  1  0.50        -4.0817   0.0000                                         
     4  3  2.50        -1.3606   0.0000                                         
   Description                                                                  
     l       E           TYP  RCUT    TYP  RCUT                                 
     2     -3.3744664     23  2.300                                             
     2     -4.7350490     23  2.300                                             
     0     -4.1331408     23  2.300                                             
     0      7.6656614     23  2.300                                             
     1     -2.7211652     23  2.300                                             
     1     20.4087390     23  2.300                                             
  local pseudopotential read in
  partial core-charges read in
  partial kinetic energy density read in
  atomic valenz-charges read in
  non local Contribution for L=           2  read in
    real space projection operators read in
  non local Contribution for L=           2  read in
    real space projection operators read in
  non local Contribution for L=           0  read in
    real space projection operators read in
  non local Contribution for L=           0  read in
    real space projection operators read in
  non local Contribution for L=           1  read in
    real space projection operators read in
  non local Contribution for L=           1  read in
    real space projection operators read in
    PAW grid and wavefunctions read in
 
   number of l-projection  operators is LMAX  =           6
   number of lm-projection operators is LMMAX =          18
 
 POTCAR:    PAW_PBE Ni 02Aug2007                  
   VRHFIN =Ni:                                                                  
   LEXCH  = PE                                                                  
   EATOM  =  1077.6739 eV,   79.2068 Ry                                         
                                                                                
   TITEL  = PAW_PBE Ni 02Aug2007                                                
   LULTRA =        F    use ultrasoft PP ?                                      
   IUNSCR =        1    unscreen: 0-lin 1-nonlin 2-no                           
   RPACOR =    2.000    partial core radius                                     
   POMASS =   58.690; ZVAL   =   10.000    mass and valenz                      
   RCORE  =    2.300    outmost cutoff radius                                   
   RWIGS  =    2.430; RWIGS  =    1.286    wigner-seitz radius (au A)           
   ENMAX  =  269.532; ENMIN  =  202.149 eV                                      
   RCLOC  =    1.201    cutoff for local pot                                    
   LCOR   =        T    correct aug charges                                     
   LPAW   =        T    paw PP                                                  
   EAUG   =  544.565                                                            
   DEXC   =    0.000                                                            
   RMAX   =    2.357    core radius for proj-oper                               
   RAUG   =    1.300    factor for augmentation sphere                          
   RDEP   =    2.390    radius for radial grids                                 
   RDEPT  =    1.838    core radius for aug-charge                              
                                                                                
   Atomic configuration                                                         
    9 entries                                                                   
     n  l   j            E        occ.                                          
     1  0  0.50     -8206.4253   2.0000                                         
     2  0  0.50      -976.1748   2.0000                                         
     2  1  1.50      -839.0571   6.0000                                         
     3  0  0.50      -105.9991   2.0000                                         
     3  1  1.50       -66.4603   6.0000                                         
     3  2  2.50        -4.6458   9.0000                                         
     4  0  0.50        -4.4926   1.0000                                         
     4  1  1.50        -4.0817   0.0000                                         
     4  3  2.50        -1.3606   0.0000                                         
   Description                                                                  
     l       E           TYP  RCUT    TYP  RCUT                                 
     2     -4.6457903     23  2.300                                             
     2     -6.0063729     23  2.300                                             
     0     -4.4925590     23  2.300                                             
     0      5.0102601     23  2.300                                             
     1     -2.7211652     23  2.300                                             
     1     16.5183231     23  2.300                                             
  local pseudopotential read in
  partial core-charges read in
  partial kinetic energy density read in
  atomic valenz-charges read in
  non local Contribution for L=           2  read in
    real space projection operators read in
  non local Contribution for L=           2  read in
    real space projection operators read in
  non local Contribution for L=           0  read in
    real space projection operators read in
  non local Contribution for L=           0  read in
    real space projection operators read in
  non local Contribution for L=           1  read in
    real space projection operators read in
  non local Contribution for L=           1  read in
    real space projection operators read in
    PAW grid and wavefunctions read in
 
   number of l-projection  operators is LMAX  =           6
   number of lm-projection operators is LMMAX =          18
 
 POTCAR:    PAW_PBE O 08Apr2002                   
   VRHFIN =O: s2p4                                                              
   LEXCH  = PE                                                                  
   EATOM  =   432.3788 eV,   31.7789 Ry                                         
                                                                                
   TITEL  = PAW_PBE O 08Apr2002                                                 
   LULTRA =        F    use ultrasoft PP ?                                      
   IUNSCR =        1    unscreen: 0-lin 1-nonlin 2-no                           
   RPACOR =    1.200    partial core radius                                     
   POMASS =   16.000; ZVAL   =    6.000    mass and valenz                      
   RCORE  =    1.520    outmost cutoff radius                                   
   RWIGS  =    1.550; RWIGS  =    0.820    wigner-seitz radius (au A)           
   ENMAX  =  400.000; ENMIN  =  300.000 eV                                      
   ICORE  =        2    local potential                                         
   LCOR   =        T    correct aug charges                                     
   LPAW   =        T    paw PP                                                  
   EAUG   =  605.392                                                            
   DEXC   =    0.000                                                            
   RMAX   =    1.553    core radius for proj-oper                               
   RAUG   =    1.300    factor for augmentation sphere                          
   RDEP   =    1.550    radius for radial grids                                 
   RDEPT  =    1.329    core radius for aug-charge                              
                                                                                
   Atomic configuration                                                         
    4 entries                                                                   
     n  l   j            E        occ.                                          
     1  0  0.50      -514.6923   2.0000                                         
     2  0  0.50       -23.9615   2.0000                                         
     2  1  0.50        -9.0305   4.0000                                         
     3  2  1.50        -9.5241   0.0000                                         
   Description                                                                  
     l       E           TYP  RCUT    TYP  RCUT                                 
     0    -23.9615318     23  1.200                                             
     0     -9.5240782     23  1.200                                             
     1     -9.0304911     23  1.520                                             
     1      8.1634956     23  1.520                                             
     2     -9.5240782      7  1.500                                             
  local pseudopotential read in
  partial core-charges read in
  partial kinetic energy density read in
  kinetic energy density of atom read in
  atomic valenz-charges read in
  non local Contribution for L=           0  read in
    real space projection operators read in
  non local Contribution for L=           0  read in
    real space projection operators read in
  non local Contribution for L=           1  read in
    real space projection operators read in
  non local Contribution for L=           1  read in
    real space projection operators read in
    PAW grid and wavefunctions read in
 
   number of l-projection  operators is LMAX  =           4
   number of lm-projection operators is LMMAX =           8
 
 Optimization of the real space projectors (new method)

 maximal supplied QI-value         = 13.42
 optimisation between [QCUT,QGAM] = [ 11.67, 23.35] = [ 38.16,152.62] Ry 
 Optimized for a Real-space Cutoff    1.63 Angstroem

   l    n(q)    QCUT    max X(q) W(low)/X(q) W(high)/X(q)  e(spline) 
   0     11    11.673    13.882    0.27E-04    0.79E-05    0.11E-06
   0     11    11.673    12.184    0.39E-04    0.13E-04    0.19E-06
   1     11    11.673     4.523    0.73E-05    0.76E-05    0.12E-06
   1     11    11.673     4.424    0.87E-05    0.13E-04    0.19E-06
   2     10    11.673    52.481    0.65E-04    0.36E-04    0.18E-06
   2     10    11.673    38.501    0.61E-04    0.33E-04    0.17E-06
   3     10    11.673    65.631    0.17E-03    0.14E-03    0.37E-06
   3     10    11.673    56.854    0.17E-03    0.14E-03    0.37E-06
 Optimization of the real space projectors (new method)

 maximal supplied QI-value         = 16.25
 optimisation between [QCUT,QGAM] = [ 11.54, 23.24] = [ 37.28,151.24] Ry 
 Optimized for a Real-space Cutoff    1.53 Angstroem

   l    n(q)    QCUT    max X(q) W(low)/X(q) W(high)/X(q)  e(spline) 
   2     10    11.539   110.144    0.12E-03    0.13E-03    0.25E-06
   2     10    11.539   103.200    0.12E-03    0.13E-03    0.25E-06
   0     11    11.539    68.437    0.46E-04    0.21E-04    0.32E-06
   0     11    11.539    33.971    0.37E-04    0.19E-04    0.29E-06
   1     10    11.539    17.065    0.51E-04    0.22E-04    0.13E-06
   1     10    11.539    12.540    0.41E-04    0.18E-04    0.11E-06
 Optimization of the real space projectors (new method)

 maximal supplied QI-value         = 16.25
 optimisation between [QCUT,QGAM] = [ 11.54, 23.24] = [ 37.28,151.24] Ry 
 Optimized for a Real-space Cutoff    1.45 Angstroem

   l    n(q)    QCUT    max X(q) W(low)/X(q) W(high)/X(q)  e(spline) 
   2      9    11.539    60.317    0.19E-03    0.47E-04    0.16E-06
   2      9    11.539    55.921    0.19E-03    0.48E-04    0.16E-06
   0     10    11.539    51.690    0.80E-04    0.50E-04    0.24E-06
   0     10    11.539    30.015    0.73E-04    0.45E-04    0.22E-06
   1     10    11.539    18.849    0.87E-04    0.16E-03    0.71E-07
   1     10    11.539    14.624    0.73E-04    0.13E-03    0.64E-07
 Optimization of the real space projectors (new method)

 maximal supplied QI-value         = 24.76
 optimisation between [QCUT,QGAM] = [ 11.64, 23.27] = [ 37.91,151.63] Ry 
 Optimized for a Real-space Cutoff    1.14 Angstroem

   l    n(q)    QCUT    max X(q) W(low)/X(q) W(high)/X(q)  e(spline) 
   0      8    11.635    20.381    0.10E-03    0.33E-03    0.24E-06
   0      8    11.635    15.268    0.11E-03    0.35E-03    0.26E-06
   1      7    11.635     5.964    0.24E-03    0.31E-03    0.30E-06
   1      7    11.635     5.382    0.22E-03    0.25E-03    0.26E-06
  PAW_PBE La 06Sep2000                  :
 energy of atom  1       EATOM= -865.9763
 kinetic energy error for atom=    0.0009 (will be added to EATOM!!)
  PAW_PBE Mn 06Sep2000                  :
 energy of atom  2       EATOM= -416.7541
 kinetic energy error for atom=    0.0024 (will be added to EATOM!!)
  PAW_PBE Ni 02Aug2007                  :
 energy of atom  3       EATOM=-1077.6739
 kinetic energy error for atom=    0.0030 (will be added to EATOM!!)
  PAW_PBE O 08Apr2002                   :
 energy of atom  4       EATOM= -432.3788
 kinetic energy error for atom=    0.0208 (will be added to EATOM!!)
 
 
 POSCAR: SCEL3_1_3_1_1_0_0/0                     
  positions in direct lattice
  velocities in cartesian coordinates
 exchange correlation table for  LEXCH =        8
   RHO(1)=    0.500       N(1)  =     2000
   RHO(2)=  100.500       N(2)  =     4000
 


--------------------------------------------------------------------------------------------------------


 ion  position               nearest neighbor table
   1  0.000  0.000  0.000-   7 2.75   7 2.75   9 2.75   8 2.75  15 2.77  13 2.77  13 2.77  15 2.77
                            10 2.77  11 2.77  11 2.77  10 2.77   6 3.38   6 3.38   6 3.38   6 3.38
   2  0.000  0.661  0.321-   7 2.65  11 2.71  11 2.71  13 2.71  13 2.71   8 2.75   8 2.75  14 2.81
                            14 2.81  12 2.81  12 2.81   6 3.30   6 3.30   4 3.38   4 3.38   4 3.38
   3  0.000  0.339  0.679-   7 2.65  10 2.71  10 2.71  15 2.71  15 2.71   9 2.75   9 2.75  14 2.81
                            14 2.81  12 2.81  12 2.81   6 3.30   6 3.30   5 3.38   5 3.38   5 3.38
   4  0.500  0.167  0.334-  13 1.91  11 1.91  12 1.94  14 1.94   8 1.97   8 1.97   2 3.38   2 3.38
                             2 3.38   2 3.38   1 3.39   1 3.39
   5  0.500  0.833  0.666-  15 1.91  10 1.91  12 1.94  14 1.94   9 1.97   9 1.97   3 3.38   3 3.38
                             3 3.38   3 3.38   1 3.39   1 3.39
   6  0.500  0.500  0.000-   7 1.97   7 1.97  11 1.98  10 1.98  15 1.98  13 1.98   3 3.30   3 3.30
                             2 3.30   2 3.30   1 3.38   1 3.38   1 3.38   1 3.38
   7  0.000  0.500  0.000-   6 1.97   6 1.97   2 2.65   3 2.65   1 2.75   1 2.75
   8  0.000  0.167  0.334-   4 1.97   4 1.97   2 2.75   2 2.75   1 2.75
   9  0.000  0.833  0.666-   5 1.97   5 1.97   3 2.75   3 2.75   1 2.75
  10  0.500  0.161  0.829-   5 1.91   6 1.98   3 2.71   3 2.71   1 2.77   1 2.77
  11  0.500  0.839  0.171-   4 1.91   6 1.98   2 2.71   2 2.71   1 2.77   1 2.77
  12  0.500  0.500  0.500-   4 1.94   5 1.94   2 2.81   2 2.81   3 2.81   3 2.81
  13  0.500  0.331  0.171-   4 1.91   6 1.98   2 2.71   2 2.71   1 2.77   1 2.77
  14  0.500  0.000  0.500-   4 1.94   5 1.94   3 2.81   3 2.81   2 2.81   2 2.81
  15  0.500  0.669  0.829-   5 1.91   6 1.98   3 2.71   3 2.71   1 2.77   1 2.77
 
  LATTYP: Found a base centered orthorhombic cell.
 ALAT       =     5.4933404544
 B/A-ratio  =     2.9997541779
 C/A-ratio  =     0.7162618483
  
  Lattice vectors:
  
 A1 = (   0.0000000000,   7.7682791451,  -3.8839008487)
 A2 = (   0.0000000000,  -3.8839008585,   7.7682791354)
 A3 = (   3.9346701871,   0.0000000000,   0.0000000000)


Analysis of symmetry for initial positions (statically):
=====================================================================
 Subroutine PRICEL returns:
 Original cell was already a primitive cell.
 

 Routine SETGRP: Setting up the symmetry group for a 
 base centered orthorhombic supercell.


 Subroutine GETGRP returns: Found  8 space group operations
 (whereof  8 operations were pure point group operations)
 out of a pool of  8 trial point group operations.


The static configuration has the point symmetry D_2h.


Analysis of symmetry for dynamics (positions and initial velocities):
=====================================================================
 Subroutine PRICEL returns:
 Original cell was already a primitive cell.
 

 Routine SETGRP: Setting up the symmetry group for a 
 base centered orthorhombic supercell.


 Subroutine GETGRP returns: Found  8 space group operations
 (whereof  8 operations were pure point group operations)
 out of a pool of  8 trial point group operations.


The dynamic configuration has the point symmetry D_2h.


Analysis of structural, dynamic, and magnetic symmetry:
=====================================================================
 Subroutine PRICEL returns:
 Original cell was already a primitive cell.
 

 Routine SETGRP: Setting up the symmetry group for a 
 base centered orthorhombic supercell.


 Subroutine GETGRP returns: Found  8 space group operations
 (whereof  8 operations were pure point group operations)
 out of a pool of  8 trial point group operations.


The magnetic configuration has the point symmetry D_2h.


 Subroutine INISYM returns: Found  8 space group operations
 (whereof  8 operations are pure point group operations),
 and found     1 'primitive' translations

 
 
 KPOINTS: Automatic mesh                          

Automatic generation of k-mesh.
 generate k-points for:    5    4    2
Space group operators:
 irot       det(A)        alpha          n_x          n_y          n_z        tau_x        tau_y        tau_z
    1     1.000000     0.000000     1.000000     0.000000     0.000000     0.000000     0.000000     0.000000
    2    -1.000000     0.000000     1.000000     0.000000     0.000000     0.000000     0.000000     0.000000
    3     1.000000   180.000000     1.000000     0.000000     0.000000     0.000000     0.000000     0.000000
    4    -1.000000   180.000000     1.000000     0.000000     0.000000     0.000000     0.000000     0.000000
    5     1.000000   180.000000     0.000000    -0.707107     0.707107     0.000000     0.000000     0.000000
    6    -1.000000   180.000000     0.000000    -0.707107     0.707107     0.000000     0.000000     0.000000
    7     1.000000   179.999999     0.000000     0.707107     0.707107     0.000000     0.000000     0.000000
    8    -1.000000   179.999999     0.000000     0.707107     0.707107     0.000000     0.000000     0.000000
 
 Subroutine IBZKPT returns following result:
 ===========================================
 
 Found     15 irreducible k-points:
 
 Following reciprocal coordinates:
            Coordinates               Weight
  0.000000  0.000000  0.000000      1.000000
  0.200000  0.000000  0.000000      2.000000
  0.400000  0.000000  0.000000      2.000000
  0.000000  0.250000 -0.000000      2.000000
  0.200000  0.250000 -0.000000      4.000000
  0.400000  0.250000 -0.000000      4.000000
  0.000000  0.500000 -0.000000      2.000000
  0.200000  0.500000 -0.000000      4.000000
  0.400000  0.500000 -0.000000      4.000000
  0.000000  0.000000  0.500000      1.000000
  0.200000  0.000000  0.500000      2.000000
  0.400000  0.000000  0.500000      2.000000
  0.000000  0.250000  0.500000      2.000000
  0.200000  0.250000  0.500000      4.000000
  0.400000  0.250000  0.500000      4.000000
 
 Following cartesian coordinates:
            Coordinates               Weight
  0.000000  0.000000  0.000000      1.000000
 -0.050830  0.000000  0.000000      2.000000
 -0.101660  0.000000  0.000000      2.000000
  0.000000  0.042908  0.021453      2.000000
 -0.050830  0.042908  0.021453      4.000000
 -0.101660  0.042908  0.021453      4.000000
  0.000000  0.085816  0.042905      2.000000
 -0.050830  0.085816  0.042905      4.000000
 -0.101660  0.085816  0.042905      4.000000
  0.000000  0.042910 -0.042910      1.000000
 -0.050830  0.042910 -0.042910      2.000000
 -0.101660  0.042910 -0.042910      2.000000
  0.000000  0.085818 -0.021458      2.000000
 -0.050830  0.085818 -0.021458      4.000000
 -0.101660  0.085818 -0.021458      4.000000
 
 TETIRR: Found    111 inequivalent tetrahedra from      240


--------------------------------------------------------------------------------------------------------




 Dimension of arrays:
   k-points           NKPTS =     15   k-points in BZ     NKDIM =     15   number of bands    NBANDS=     72
   number of dos      NEDOS =    301   number of ions     NIONS =     15
   non local maximal  LDIM  =      8   non local SUM 2l+1 LMDIM =     32
   total plane-waves  NPLWV =  88200
   max r-space proj   IRMAX =   8988   max aug-charges    IRDMAX=  26075
   dimension x,y,z NGX =    30 NGY =   42 NGZ =   70
   dimension x,y,z NGXF=    60 NGYF=   84 NGZF=  140
   support grid    NGXF=    60 NGYF=   84 NGZF=  140
   ions per type =               3   2   1   9
   NGX,Y,Z   is equivalent  to a cutoff of  12.68, 12.71, 13.40 a.u.
   NGXF,Y,Z  is equivalent  to a cutoff of  25.35, 25.42, 26.80 a.u.

 SYSTEM =  final                                   
 POSCAR =  SCEL3_1_3_1_1_0_0/0                     

 Startparameter for this run:
   NWRITE =      2    write-flag & timer
   PREC   = accura    normal or accurate (medium, high low for compatibility)
   ISTART =      0    job   : 0-new  1-cont  2-samecut
   ICHARG =      1    charge: 1-file 2-atom 10-const
   ISPIN  =      2    spin polarized calculation?
   LNONCOLLINEAR =      F non collinear calculations
   LSORBIT =      F    spin-orbit coupling
   INIWAV =      1    electr: 0-lowe 1-rand  2-diag
   LASPH  =      F    aspherical Exc in radial PAW
   METAGGA=      F    non-selfconsistent MetaGGA calc.

 Electronic Relaxation 1
   ENCUT  =  520.0 eV  38.22 Ry    6.18 a.u.   7.32 10.21 16.15*2*pi/ulx,y,z
   ENINI  =  520.0     initial cutoff
   ENAUG  =  605.4 eV  augmentation charge cutoff
   NELM   =    100;   NELMIN=  2; NELMDL= -5     # of ELM steps 
   EDIFF  = 0.1E-02   stopping-criterion for ELM
   LREAL  =      T    real-space projection
   NLSPLINE    = F    spline interpolate recip. space projectors
   LCOMPAT=      F    compatible to vasp.4.4
   GGA_COMPAT  = T    GGA compatible to vasp.4.4-vasp.4.6
   LMAXPAW     = -100 max onsite density
   LMAXMIX     =    6 max onsite mixed and CHGCAR
   VOSKOWN=      0    Vosko Wilk Nusair interpolation
   ROPT   =   -0.00025  -0.00025  -0.00025  -0.00025
 Ionic relaxation
   EDIFFG = 0.1E-01   stopping-criterion for IOM
   NSW    =      0    number of steps for IOM
   NBLOCK =      1;   KBLOCK =      1    inner block; outer block 
   IBRION =     -1    ionic relax: 0-MD 1-quasi-New 2-CG
   NFREE  =      0    steps in history (QN), initial steepest desc. (CG)
   ISIF   =      2    stress and relaxation
   IWAVPR =     10    prediction:  0-non 1-charg 2-wave 3-comb
   ISYM   =      2    0-nonsym 1-usesym 2-fastsym
   LCORR  =      T    Harris-Foulkes like correction to forces

   POTIM  = 0.5000    time-step for ionic-motion
   TEIN   =    0.0    initial temperature
   TEBEG  =    0.0;   TEEND  =   0.0 temperature during run
   SMASS  =  -3.00    Nose mass-parameter (am)
   estimated Nose-frequenzy (Omega)   =  0.10E-29 period in steps =****** mass=  -0.354E-27a.u.
   SCALEE = 1.0000    scale energy and forces
   NPACO  =    256;   APACO  = 16.0  distance and # of slots for P.C.
   PSTRESS=    0.0 pullay stress

  Mass of Ions in am
   POMASS = 138.90 54.94 58.69 16.00
  Ionic Valenz
   ZVAL   =  11.00  7.00 10.00  6.00
  Atomic Wigner-Seitz radii
   RWIGS  =  -1.00 -1.00 -1.00 -1.00
  virtual crystal weights 
   VCA    =   1.00  1.00  1.00  1.00
   NELECT =     111.0000    total number of electrons
   NUPDOWN=      -1.0000    fix difference up-down

 DOS related values:
   EMIN   =  10.00;   EMAX   =-10.00  energy-range for DOS
   EFERMI =   0.00
   ISMEAR =    -5;   SIGMA  =   0.05  broadening in eV -4-tet -1-fermi 0-gaus

 Electronic relaxation 2 (details)
   IALGO  =     68    algorithm
   LDIAG  =      T    sub-space diagonalisation (order eigenvalues)
   LSUBROT=      F    optimize rotation matrix (better conditioning)
   TURBO    =      0    0=normal 1=particle mesh
   IRESTART =      0    0=no restart 2=restart with 2 vectors
   NREBOOT  =      0    no. of reboots
   NMIN     =      0    reboot dimension
   EREF     =   0.00    reference energy to select bands
   IMIX   =      4    mixing-type and parameters
     AMIX     =   0.40;   BMIX     =  1.00
     AMIX_MAG =   1.60;   BMIX_MAG =  1.00
     AMIN     =   0.10
     WC   =   100.;   INIMIX=   1;  MIXPRE=   1;  MAXMIX= -45

 Intra band minimization:
   WEIMIN = 0.0000     energy-eigenvalue tresh-hold
   EBREAK =  0.35E-05  absolut break condition
   DEPER  =   0.30     relativ break condition  

   TIME   =   0.40     timestep for ELM

  volume/ion in A,a.u.               =      11.87        80.12
  Fermi-wavevector in a.u.,A,eV,Ry     =   1.398417  2.642626 26.607161  1.955571
  Thomas-Fermi vector in A             =   2.521577
 
 Write flags
   LWAVE        =      F    write WAVECAR
   LDOWNSAMPLE  =      F    k-point downsampling of WAVECAR
   LCHARG       =      T    write CHGCAR
   LVTOT        =      F    write LOCPOT, total local potential
   LVHAR        =      F    write LOCPOT, Hartree potential only
   LELF         =      F    write electronic localiz. function (ELF)
   LORBIT       =     11    0 simple, 1 ext, 2 COOP (PROOUT), +10 PAW based schemes


 Dipole corrections
   LMONO  =      F    monopole corrections only (constant potential shift)
   LDIPOL =      F    correct potential (dipole corrections)
   IDIPOL =      0    1-x, 2-y, 3-z, 4-all directions 
   EPSILON=  1.0000000 bulk dielectric constant

 LDA+U is selected, type is set to LDAUTYPE =  2
   angular momentum for each species LDAUL =     0    2    2    0
   U (eV)           for each species LDAUU =   0.0  3.9  6.2  0.0
   J (eV)           for each species LDAUJ =   0.0  0.0  0.0  0.0
 Exchange correlation treatment:
   GGA     =    --    GGA type
   LEXCH   =     8    internal setting for exchange type
   VOSKOWN=      0    Vosko Wilk Nusair interpolation
   LHFCALC =     F    Hartree Fock is set to
   LHFONE  =     F    Hartree Fock one center treatment
   AEXX    =    0.0000 exact exchange contribution

 Linear response parameters
   LEPSILON=     F    determine dielectric tensor
   LRPA    =     F    only Hartree local field effects (RPA)
   LNABLA  =     F    use nabla operator in PAW spheres
   LVEL    =     F    velocity operator in full k-point grid
   LINTERFAST=   F  fast interpolation
   KINTER  =     0    interpolate to denser k-point grid
   CSHIFT  =0.1000    complex shift for real part using Kramers Kronig
   OMEGAMAX=  -1.0    maximum frequency
   DEG_THRESHOLD= 0.2000000E-02 threshold for treating states as degnerate
   RTIME   =   -0.100 relaxation time in fs
  (WPLASMAI=    0.000 imaginary part of plasma frequency in eV, 0.658/RTIME)
   DFIELD  = 0.0000000 0.0000000 0.0000000 field for delta impulse in time
 
 Orbital magnetization related:
   ORBITALMAG=     F  switch on orbital magnetization
   LCHIMAG   =     F  perturbation theory with respect to B field
   DQ        =  0.001000  dq finite difference perturbation B field
   LLRAUG    =     F  two centre corrections for induced B field



--------------------------------------------------------------------------------------------------------


 Static calculation
 charge density and potential will be updated during run
 spin polarized calculation
 RMM-DIIS sequential band-by-band and
  variant of blocked Davidson during initial phase
 perform sub-space diagonalisation
    before iterative eigenvector-optimisation
 modified Broyden-mixing scheme, WC =      100.0
 initial mixing is a Kerker type mixing with AMIX =  0.4000 and BMIX =      1.0000
 Hartree-type preconditioning will be used
 using additional bands           16
 real space projection scheme for non local part
 use partial core corrections
 calculate Harris-corrections to forces 
   (improved forces if not selfconsistent)
 use gradient corrections 
 use of overlap-Matrix (Vanderbilt PP)
 Fermi weights with tetrahedron method with Bloechl corrections


--------------------------------------------------------------------------------------------------------


  energy-cutoff  :      520.00
  volume of cell :      178.09
      direct lattice vectors                 reciprocal lattice vectors
    -3.934670187  0.000000000  0.000000000    -0.254150908  0.000000000  0.000000000
     0.000000000  3.884378287  3.884378287     0.000000000  0.171631153  0.085810303
     0.000000000  3.883900858 -7.768279135     0.000000000  0.085820851 -0.085820851

  length of vectors
     3.934670187  5.493340454  8.685093356     0.254150908  0.191887104  0.121369011


 
 k-points in units of 2pi/SCALE and weight: Automatic mesh                          
   0.00000000  0.00000000  0.00000000       0.025
  -0.05083018  0.00000000  0.00000000       0.050
  -0.10166036  0.00000000  0.00000000       0.050
   0.00000000  0.04290779  0.02145258       0.050
  -0.05083018  0.04290779  0.02145258       0.100
  -0.10166036  0.04290779  0.02145258       0.100
   0.00000000  0.08581558  0.04290515       0.050
  -0.05083018  0.08581558  0.04290515       0.100
  -0.10166036  0.08581558  0.04290515       0.100
   0.00000000  0.04291043 -0.04291043       0.025
  -0.05083018  0.04291043 -0.04291043       0.050
  -0.10166036  0.04291043 -0.04291043       0.050
   0.00000000  0.08581821 -0.02145785       0.050
  -0.05083018  0.08581821 -0.02145785       0.100
  -0.10166036  0.08581821 -0.02145785       0.100
 
 k-points in reciprocal lattice and weights: Automatic mesh                          
   0.00000000  0.00000000  0.00000000       0.025
   0.20000000  0.00000000  0.00000000       0.050
   0.40000000  0.00000000  0.00000000       0.050
   0.00000000  0.25000000 -0.00000000       0.050
   0.20000000  0.25000000 -0.00000000       0.100
   0.40000000  0.25000000 -0.00000000       0.100
   0.00000000  0.50000000 -0.00000000       0.050
   0.20000000  0.50000000 -0.00000000       0.100
   0.40000000  0.50000000 -0.00000000       0.100
   0.00000000  0.00000000  0.50000000       0.025
   0.20000000  0.00000000  0.50000000       0.050
   0.40000000  0.00000000  0.50000000       0.050
   0.00000000  0.25000000  0.50000000       0.050
   0.20000000  0.25000000  0.50000000       0.100
   0.40000000  0.25000000  0.50000000       0.100
 
 position of ions in fractional coordinates (direct lattice) 
   0.00000000  0.00000000  0.00000000
   0.00000000  0.66074600  0.32149189
   0.00000000  0.33925400  0.67850811
   0.50000000  0.16720697  0.33441384
   0.50000000  0.83279303  0.66558616
   0.50000000  0.50000000  0.00000000
   0.00000000  0.50000000  0.00000000
   0.00000000  0.16704909  0.33409808
   0.00000000  0.83295091  0.66590192
   0.50000000  0.16055746  0.82906223
   0.50000000  0.83944254  0.17093777
   0.50000000  0.50000000  0.50000000
   0.50000000  0.33149513  0.17093777
   0.50000000  0.00000000  0.50000000
   0.50000000  0.66850487  0.82906223
 
 position of ions in cartesian coordinates  (Angst):
   0.00000000  0.00000000  0.00000000
   0.00000000  3.81523003  0.06914865
   0.00000000  3.95304911 -3.95304949
  -1.96733509  1.94832533 -1.94832494
  -1.96733509  5.81995381 -1.93557591
  -1.96733509  1.94218914  1.94218914
   0.00000000  1.94218914  1.94218914
   0.00000000  1.94648569 -1.94648530
   0.00000000  5.82179345 -1.93741555
  -1.96733509  3.84366143 -5.81672094
  -1.96733509  3.92461772  1.93282010
  -1.96733509  3.88413957 -1.94195042
  -1.96733509  1.95155780 -0.04023982
  -1.96733509  1.94195043 -3.88413957
  -1.96733509  5.81672134 -3.84366103
 


--------------------------------------------------------------------------------------------------------


 k-point  1 :   0.0000 0.0000 0.0000  plane waves:    4807
 k-point  2 :   0.2000 0.0000 0.0000  plane waves:    4801
 k-point  3 :   0.4000 0.0000 0.0000  plane waves:    4774
 k-point  4 :   0.0000 0.2500-0.0000  plane waves:    4804
 k-point  5 :   0.2000 0.2500-0.0000  plane waves:    4777
 k-point  6 :   0.4000 0.2500-0.0000  plane waves:    4784
 k-point  7 :   0.0000 0.5000-0.0000  plane waves:    4798
 k-point  8 :   0.2000 0.5000-0.0000  plane waves:    4784
 k-point  9 :   0.4000 0.5000-0.0000  plane waves:    4814
 k-point 10 :   0.0000 0.0000 0.5000  plane waves:    4800
 k-point 11 :   0.2000 0.0000 0.5000  plane waves:    4820
 k-point 12 :   0.4000 0.0000 0.5000  plane waves:    4780
 k-point 13 :   0.0000 0.2500 0.5000  plane waves:    4804
 k-point 14 :   0.2000 0.2500 0.5000  plane waves:    4795
 k-point 15 :   0.4000 0.2500 0.5000  plane waves:    4795

 maximum and minimum number of plane-waves per node :       497      464

 maximum number of plane-waves:      4820
 maximum index in each direction: 
   IXMAX=    7   IYMAX=   10   IZMAX=   16
   IXMIN=   -7   IYMIN=  -10   IZMIN=  -16


 real space projection operators:
  total allocation   :      11072.67 KBytes
  max/ min on nodes  :       1149.78       1087.03


 parallel 3D FFT for wavefunctions:
    minimum data exchange during FFTs selected (reduces bandwidth)
 parallel 3D FFT for charge:
    minimum data exchange during FFTs selected (reduces bandwidth)


 total amount of memory used by VASP MPI-rank0    48807. kBytes
=======================================================================

   base      :      30000. kBytes
   nonlr-proj:       3700. kBytes
   fftplans  :       1471. kBytes
   grid      :       4144. kBytes
   one-center:        196. kBytes
   wavefun   :       9296. kBytes
 
     INWAV:  cpu time    0.0000: real time    0.0001
 Broyden mixing: mesh for mixing (old mesh)
   NGX = 15   NGY = 21   NGZ = 33
  (NGX  = 60   NGY  = 84   NGZ  =140)
  gives a total of  10395 points

 initial charge density was supplied:
 charge density of overlapping atoms calculated
 number of electron     111.0000000 magnetization      11.0000000
 keeping initial charge density in first step


--------------------------------------------------------------------------------------------------------


 Maximum index for non-local projection operator          890
 Maximum index for augmentation-charges         1079 (set IRDMAX)


--------------------------------------------------------------------------------------------------------


 First call to EWALD:  gamma=   0.315
 Maximum number of real-space cells 4x 3x 2
 Maximum number of reciprocal cells 2x 3x 4

    FEWALD:  cpu time    0.0016: real time    0.0016


--------------------------------------- Iteration      1(   1)  ---------------------------------------


    POTLOK:  cpu time    0.0412: real time    0.0416
    SETDIJ:  cpu time    0.0121: real time    0.0124
atom =   1  type =  1  l = 0
 
 onsite density matrix
 
spin component  1
 
  1.0989
 
spin component  2
 
  1.0989
 
 occupancies and eigenvectors
 
  o =  1.0989  v =  1.0000  0.0000      0.0000  0.0000
  o =  1.0989  v =  0.0000  1.0000      0.0000  0.0000
atom =   2  type =  1  l = 0
 
 onsite density matrix
 
spin component  1
 
  1.0989
 
spin component  2
 
  1.0989
 
 occupancies and eigenvectors
 
  o =  1.0989  v =  1.0000  0.0000      0.0000  0.0000
  o =  1.0989  v =  0.0000  1.0000      0.0000  0.0000
atom =   3  type =  1  l = 0
 
 onsite density matrix
 
spin component  1
 
  1.0989
 
spin component  2
 
  1.0989
 
 occupancies and eigenvectors
 
  o =  1.0989  v =  1.0000  0.0000      0.0000  0.0000
  o =  1.0989  v =  0.0000  1.0000      0.0000  0.0000
atom =   4  type =  2  l = 2
 
 onsite density matrix
 
spin component  1
 
  0.8272  0.0000  0.0000  0.0000  0.0000
  0.0000  0.8272  0.0000  0.0000  0.0000
  0.0000  0.0000  0.8272  0.0000  0.0000
  0.0000  0.0000  0.0000  0.8272  0.0000
  0.0000  0.0000  0.0000  0.0000  0.8272
 
spin component  2
 
  0.2256  0.0000  0.0000  0.0000  0.0000
  0.0000  0.2256  0.0000  0.0000  0.0000
  0.0000  0.0000  0.2256  0.0000  0.0000
  0.0000  0.0000  0.0000  0.2256  0.0000
  0.0000  0.0000  0.0000  0.0000  0.2256
 
 occupancies and eigenvectors
 
  o =  0.2256  v =  0.0000  0.0000  0.0000  0.0000  0.0000  0.0000  0.0000  1.0000  0.0000  0.0000      0.0000  0.0000  0.0000  0.0000  0.0000  0.0000  0.0000  0.0000  0.0000  0.0000
  o =  0.2256  v =  0.0000  0.0000  0.0000  0.0000  0.0000  1.0000  0.0000  0.0000  0.0000  0.0000      0.0000  0.0000  0.0000  0.0000  0.0000  0.0000  0.0000  0.0000  0.0000  0.0000
  o =  0.2256  v =  0.0000  0.0000  0.0000  0.0000  0.0000  0.0000  1.0000  0.0000  0.0000  0.0000      0.0000  0.0000  0.0000  0.0000  0.0000  0.0000  0.0000  0.0000  0.0000  0.0000
  o =  0.2256  v =  0.0000  0.0000  0.0000  0.0000  0.0000  0.0000  0.0000  0.0000  1.0000  0.0000      0.0000  0.0000  0.0000  0.0000  0.0000  0.0000  0.0000  0.0000  0.0000  0.0000
  o =  0.2256  v =  0.0000  0.0000  0.0000  0.0000  0.0000  0.0000  0.0000  0.0000  0.0000  1.0000      0.0000  0.0000  0.0000  0.0000  0.0000  0.0000  0.0000  0.0000  0.0000  0.0000
  o =  0.8272  v =  0.0000  1.0000  0.0000  0.0000  0.0000  0.0000  0.0000  0.0000  0.0000  0.0000      0.0000  0.0000  0.0000  0.0000  0.0000  0.0000  0.0000  0.0000  0.0000  0.0000
  o =  0.8272  v =  0.0000  0.0000  1.0000  0.0000  0.0000  0.0000  0.0000  0.0000  0.0000  0.0000      0.0000  0.0000  0.0000  0.0000  0.0000  0.0000  0.0000  0.0000  0.0000  0.0000
  o =  0.8272  v =  1.0000  0.0000  0.0000  0.0000  0.0000  0.0000  0.0000  0.0000  0.0000  0.0000      0.0000  0.0000  0.0000  0.0000  0.0000  0.0000  0.0000  0.0000  0.0000  0.0000
  o =  0.8272  v =  0.0000  0.0000  0.0000  1.0000  0.0000  0.0000  0.0000  0.0000  0.0000  0.0000      0.0000  0.0000  0.0000  0.0000  0.0000  0.0000  0.0000  0.0000  0.0000  0.0000
  o =  0.8272  v =  0.0000  0.0000  0.0000  0.0000  1.0000  0.0000  0.0000  0.0000  0.0000  0.0000      0.0000  0.0000  0.0000  0.0000  0.0000  0.0000  0.0000  0.0000  0.0000  0.0000
atom =   5  type =  2  l = 2
 
 onsite density matrix
 
spin component  1
 
  0.8272  0.0000  0.0000  0.0000  0.0000
  0.0000  0.8272  0.0000  0.0000  0.0000
  0.0000  0.0000  0.8272  0.0000  0.0000
  0.0000  0.0000  0.0000  0.8272  0.0000
  0.0000  0.0000  0.0000  0.0000  0.8272
 
spin component  2
 
  0.2256  0.0000  0.0000  0.0000  0.0000
  0.0000  0.2256  0.0000  0.0000  0.0000
  0.0000  0.0000  0.2256  0.0000  0.0000
  0.0000  0.0000  0.0000  0.2256  0.0000
  0.0000  0.0000  0.0000  0.0000  0.2256
 
 occupancies and eigenvectors
 
  o =  0.2256  v =  0.0000  0.0000  0.0000  0.0000  0.0000  0.0000  0.0000  1.0000  0.0000  0.0000      0.0000  0.0000  0.0000  0.0000  0.0000  0.0000  0.0000  0.0000  0.0000  0.0000
  o =  0.2256  v =  0.0000  0.0000  0.0000  0.0000  0.0000  1.0000  0.0000  0.0000  0.0000  0.0000      0.0000  0.0000  0.0000  0.0000  0.0000  0.0000  0.0000  0.0000  0.0000  0.0000
  o =  0.2256  v =  0.0000  0.0000  0.0000  0.0000  0.0000  0.0000  1.0000  0.0000  0.0000  0.0000      0.0000  0.0000  0.0000  0.0000  0.0000  0.0000  0.0000  0.0000  0.0000  0.0000
  o =  0.2256  v =  0.0000  0.0000  0.0000  0.0000  0.0000  0.0000  0.0000  0.0000  1.0000  0.0000      0.0000  0.0000  0.0000  0.0000  0.0000  0.0000  0.0000  0.0000  0.0000  0.0000
  o =  0.2256  v =  0.0000  0.0000  0.0000  0.0000  0.0000  0.0000  0.0000  0.0000  0.0000  1.0000      0.0000  0.0000  0.0000  0.0000  0.0000  0.0000  0.0000  0.0000  0.0000  0.0000
  o =  0.8272  v =  0.0000  1.0000  0.0000  0.0000  0.0000  0.0000  0.0000  0.0000  0.0000  0.0000      0.0000  0.0000  0.0000  0.0000  0.0000  0.0000  0.0000  0.0000  0.0000  0.0000
  o =  0.8272  v =  0.0000  0.0000  1.0000  0.0000  0.0000  0.0000  0.0000  0.0000  0.0000  0.0000      0.0000  0.0000  0.0000  0.0000  0.0000  0.0000  0.0000  0.0000  0.0000  0.0000
  o =  0.8272  v =  1.0000  0.0000  0.0000  0.0000  0.0000  0.0000  0.0000  0.0000  0.0000  0.0000      0.0000  0.0000  0.0000  0.0000  0.0000  0.0000  0.0000  0.0000  0.0000  0.0000
  o =  0.8272  v =  0.0000  0.0000  0.0000  1.0000  0.0000  0.0000  0.0000  0.0000  0.0000  0.0000      0.0000  0.0000  0.0000  0.0000  0.0000  0.0000  0.0000  0.0000  0.0000  0.0000
  o =  0.8272  v =  0.0000  0.0000  0.0000  0.0000  1.0000  0.0000  0.0000  0.0000  0.0000  0.0000      0.0000  0.0000  0.0000  0.0000  0.0000  0.0000  0.0000  0.0000  0.0000  0.0000
atom =   6  type =  3  l = 2
 
 onsite density matrix
 
spin component  1
 
  1.1008  0.0000  0.0000  0.0000  0.0000
  0.0000  1.1008  0.0000  0.0000  0.0000
  0.0000  0.0000  1.1008  0.0000  0.0000
  0.0000  0.0000  0.0000  1.1008  0.0000
  0.0000  0.0000  0.0000  0.0000  1.1008
 
spin component  2
 
  0.5927  0.0000  0.0000  0.0000  0.0000
  0.0000  0.5927  0.0000  0.0000  0.0000
  0.0000  0.0000  0.5927  0.0000  0.0000
  0.0000  0.0000  0.0000  0.5927  0.0000
  0.0000  0.0000  0.0000  0.0000  0.5927
 
 occupancies and eigenvectors
 
  o =  0.5927  v =  0.0000  0.0000  0.0000  0.0000  0.0000  1.0000  0.0000  0.0000  0.0000  0.0000      0.0000  0.0000  0.0000  0.0000  0.0000  0.0000  0.0000  0.0000  0.0000  0.0000
  o =  0.5927  v =  0.0000  0.0000  0.0000  0.0000  0.0000  0.0000  1.0000  0.0000  0.0000  0.0000      0.0000  0.0000  0.0000  0.0000  0.0000  0.0000  0.0000  0.0000  0.0000  0.0000
  o =  0.5927  v =  0.0000  0.0000  0.0000  0.0000  0.0000  0.0000  0.0000  1.0000  0.0000  0.0000      0.0000  0.0000  0.0000  0.0000  0.0000  0.0000  0.0000  0.0000  0.0000  0.0000
  o =  0.5927  v =  0.0000  0.0000  0.0000  0.0000  0.0000  0.0000  0.0000  0.0000  1.0000  0.0000      0.0000  0.0000  0.0000  0.0000  0.0000  0.0000  0.0000  0.0000  0.0000  0.0000
  o =  0.5927  v =  0.0000  0.0000  0.0000  0.0000  0.0000  0.0000  0.0000  0.0000  0.0000  1.0000      0.0000  0.0000  0.0000  0.0000  0.0000  0.0000  0.0000  0.0000  0.0000  0.0000
  o =  1.1008  v =  1.0000  0.0000  0.0000  0.0000  0.0000  0.0000  0.0000  0.0000  0.0000  0.0000      0.0000  0.0000  0.0000  0.0000  0.0000  0.0000  0.0000  0.0000  0.0000  0.0000
  o =  1.1008  v =  0.0000  1.0000  0.0000  0.0000  0.0000  0.0000  0.0000  0.0000  0.0000  0.0000      0.0000  0.0000  0.0000  0.0000  0.0000  0.0000  0.0000  0.0000  0.0000  0.0000
  o =  1.1008  v =  0.0000  0.0000  1.0000  0.0000  0.0000  0.0000  0.0000  0.0000  0.0000  0.0000      0.0000  0.0000  0.0000  0.0000  0.0000  0.0000  0.0000  0.0000  0.0000  0.0000
  o =  1.1008  v =  0.0000  0.0000  0.0000  1.0000  0.0000  0.0000  0.0000  0.0000  0.0000  0.0000      0.0000  0.0000  0.0000  0.0000  0.0000  0.0000  0.0000  0.0000  0.0000  0.0000
  o =  1.1008  v =  0.0000  0.0000  0.0000  0.0000  1.0000  0.0000  0.0000  0.0000  0.0000  0.0000      0.0000  0.0000  0.0000  0.0000  0.0000  0.0000  0.0000  0.0000  0.0000  0.0000
atom =   7  type =  4  l = 0
 
 onsite density matrix
 
spin component  1
 
  0.8190
 
spin component  2
 
  0.8190
 
 occupancies and eigenvectors
 
  o =  0.8190  v =  1.0000  0.0000      0.0000  0.0000
  o =  0.8190  v =  0.0000  1.0000      0.0000  0.0000
atom =   8  type =  4  l = 0
 
 onsite density matrix
 
spin component  1
 
  0.8190
 
spin component  2
 
  0.8190
 
 occupancies and eigenvectors
 
  o =  0.8190  v =  1.0000  0.0000      0.0000  0.0000
  o =  0.8190  v =  0.0000  1.0000      0.0000  0.0000
atom =   9  type =  4  l = 0
 
 onsite density matrix
 
spin component  1
 
  0.8190
 
spin component  2
 
  0.8190
 
 occupancies and eigenvectors
 
  o =  0.8190  v =  1.0000  0.0000      0.0000  0.0000
  o =  0.8190  v =  0.0000  1.0000      0.0000  0.0000
atom =  10  type =  4  l = 0
 
 onsite density matrix
 
spin component  1
 
  0.8190
 
spin component  2
 
  0.8190
 
 occupancies and eigenvectors
 
  o =  0.8190  v =  1.0000  0.0000      0.0000  0.0000
  o =  0.8190  v =  0.0000  1.0000      0.0000  0.0000
atom =  11  type =  4  l = 0
 
 onsite density matrix
 
spin component  1
 
  0.8190
 
spin component  2
 
  0.8190
 
 occupancies and eigenvectors
 
  o =  0.8190  v =  1.0000  0.0000      0.0000  0.0000
  o =  0.8190  v =  0.0000  1.0000      0.0000  0.0000
atom =  12  type =  4  l = 0
 
 onsite density matrix
 
spin component  1
 
  0.8190
 
spin component  2
 
  0.8190
 
 occupancies and eigenvectors
 
  o =  0.8190  v =  1.0000  0.0000      0.0000  0.0000
  o =  0.8190  v =  0.0000  1.0000      0.0000  0.0000
atom =  13  type =  4  l = 0
 
 onsite density matrix
 
spin component  1
 
  0.8190
 
spin component  2
 
  0.8190
 
 occupancies and eigenvectors
 
  o =  0.8190  v =  1.0000  0.0000      0.0000  0.0000
  o =  0.8190  v =  0.0000  1.0000      0.0000  0.0000
atom =  14  type =  4  l = 0
 
 onsite density matrix
 
spin component  1
 
  0.8190
 
spin component  2
 
  0.8190
 
 occupancies and eigenvectors
 
  o =  0.8190  v =  1.0000  0.0000      0.0000  0.0000
  o =  0.8190  v =  0.0000  1.0000      0.0000  0.0000
atom =  15  type =  4  l = 0
 
 onsite density matrix
 
spin component  1
 
  0.8190
 
spin component  2
 
  0.8190
 
 occupancies and eigenvectors
 
  o =  0.8190  v =  1.0000  0.0000      0.0000  0.0000
  o =  0.8190  v =  0.0000  1.0000      0.0000  0.0000
     EDDAV:  cpu time    1.2506: real time    1.2567
 BZINTS: Fermi energy: 26.779333;111.000000 electrons
         Band energy:1469.102490;  BLOECHL correction: -0.362829
       DOS:  cpu time    0.0257: real time    0.0277
    --------------------------------------------
      LOOP:  cpu time    1.3297: real time    1.3384

 eigenvalue-minimisations  :  4616
 total energy-change (2. order) : 0.1594281E+04  (-0.4159216E+04)
 number of electron     111.0000000 magnetization      11.0000000
 augmentation part      111.0000000 magnetization      11.0000000

 Free energy of the ion-electron system (eV)
  ---------------------------------------------------
  alpha Z        PSCENC =       486.99455823
  Ewald energy   TEWEN  =     -7519.45284493
  -Hartree energ DENC   =     -1585.25412070
  -exchange      EXHF   =         0.00000000
  -V(xc)+E(xc)   XCENC  =       355.25450444
  PAW double counting   =      6822.26835318    -6834.95433714
  entropy T*S    EENTRO =         0.00000000
  eigenvalues    EBANDS =      1469.10248999
  atomic energy  EATOM  =      8400.32230685
  Solvation  Ediel_sol  =         0.00000000
  ---------------------------------------------------
  free energy    TOTEN  =      1594.28090991 eV

  energy without entropy =     1594.28090991  energy(sigma->0) =     1594.28090991


--------------------------------------------------------------------------------------------------------




--------------------------------------- Iteration      1(   2)  ---------------------------------------


     EDDAV:  cpu time    1.3176: real time    1.3251
 BZINTS: Fermi energy: 14.917761;111.000000 electrons
         Band energy: 327.161869;  BLOECHL correction: -0.127075
       DOS:  cpu time    0.0255: real time    0.0256
    --------------------------------------------
      LOOP:  cpu time    1.3432: real time    1.3507

 eigenvalue-minimisations  :  4968
 total energy-change (2. order) :-0.1141941E+04  (-0.1039739E+04)
 number of electron     111.0000000 magnetization      11.0000000
 augmentation part      111.0000000 magnetization      11.0000000

 Free energy of the ion-electron system (eV)
  ---------------------------------------------------
  alpha Z        PSCENC =       486.99455823
  Ewald energy   TEWEN  =     -7519.45284493
  -Hartree energ DENC   =     -1585.25412070
  -exchange      EXHF   =         0.00000000
  -V(xc)+E(xc)   XCENC  =       355.25450444
  PAW double counting   =      6822.26835318    -6834.95433714
  entropy T*S    EENTRO =         0.00000000
  eigenvalues    EBANDS =       327.16186877
  atomic energy  EATOM  =      8400.32230685
  Solvation  Ediel_sol  =         0.00000000
  ---------------------------------------------------
  free energy    TOTEN  =       452.34028870 eV

  energy without entropy =      452.34028870  energy(sigma->0) =      452.34028870


--------------------------------------------------------------------------------------------------------




--------------------------------------- Iteration      1(   3)  ---------------------------------------


     EDDAV:  cpu time    1.4575: real time    1.4655
 BZINTS: Fermi energy: 11.731318;111.000000 electrons
         Band energy: -98.792325;  BLOECHL correction: -0.023575
       DOS:  cpu time    0.0283: real time    0.0283
    --------------------------------------------
      LOOP:  cpu time    1.4858: real time    1.4938

 eigenvalue-minimisations  :  5704
 total energy-change (2. order) :-0.4259542E+03  (-0.3998217E+03)
 number of electron     111.0000000 magnetization      11.0000000
 augmentation part      111.0000000 magnetization      11.0000000

 Free energy of the ion-electron system (eV)
  ---------------------------------------------------
  alpha Z        PSCENC =       486.99455823
  Ewald energy   TEWEN  =     -7519.45284493
  -Hartree energ DENC   =     -1585.25412070
  -exchange      EXHF   =         0.00000000
  -V(xc)+E(xc)   XCENC  =       355.25450444
  PAW double counting   =      6822.26835318    -6834.95433714
  entropy T*S    EENTRO =         0.00000000
  eigenvalues    EBANDS =       -98.79232490
  atomic energy  EATOM  =      8400.32230685
  Solvation  Ediel_sol  =         0.00000000
  ---------------------------------------------------
  free energy    TOTEN  =        26.38609502 eV

  energy without entropy =       26.38609502  energy(sigma->0) =       26.38609502


--------------------------------------------------------------------------------------------------------




--------------------------------------- Iteration      1(   4)  ---------------------------------------


     EDDAV:  cpu time    1.8241: real time    1.8307
 BZINTS: Fermi energy: 11.176915;111.000000 electrons
         Band energy:-235.573748;  BLOECHL correction: -0.030422
       DOS:  cpu time    0.0276: real time    0.0277
    --------------------------------------------
      LOOP:  cpu time    1.8518: real time    1.8583

 eigenvalue-minimisations  :  7336
 total energy-change (2. order) :-0.1367814E+03  (-0.1314025E+03)
 number of electron     111.0000000 magnetization      11.0000000
 augmentation part      111.0000000 magnetization      11.0000000

 Free energy of the ion-electron system (eV)
  ---------------------------------------------------
  alpha Z        PSCENC =       486.99455823
  Ewald energy   TEWEN  =     -7519.45284493
  -Hartree energ DENC   =     -1585.25412070
  -exchange      EXHF   =         0.00000000
  -V(xc)+E(xc)   XCENC  =       355.25450444
  PAW double counting   =      6822.26835318    -6834.95433714
  entropy T*S    EENTRO =         0.00000000
  eigenvalues    EBANDS =      -235.57374760
  atomic energy  EATOM  =      8400.32230685
  Solvation  Ediel_sol  =         0.00000000
  ---------------------------------------------------
  free energy    TOTEN  =      -110.39532768 eV

  energy without entropy =     -110.39532768  energy(sigma->0) =     -110.39532768


--------------------------------------------------------------------------------------------------------




--------------------------------------- Iteration      1(   5)  ---------------------------------------


     EDDAV:  cpu time    1.9205: real time    1.9282
 BZINTS: Fermi energy: 10.748631;111.000000 electrons
         Band energy:-256.213225;  BLOECHL correction: -0.091029
       DOS:  cpu time    0.0258: real time    0.0259
    CHARGE:  cpu time    0.0758: real time    0.0762
    MIXING:  cpu time    0.0017: real time    0.0020
    --------------------------------------------
      LOOP:  cpu time    2.0238: real time    2.0323

 eigenvalue-minimisations  :  7832
 total energy-change (2. order) :-0.2063948E+02  (-0.1994922E+02)
 number of electron     111.0000001 magnetization       9.5790268
 augmentation part       12.5664213 magnetization       6.6750387

 Broyden mixing:
  rms(total) = 0.47441E+01    rms(broyden)= 0.47437E+01
  rms(prec ) = 0.59661E+01
  weight for this iteration     100.00

 Free energy of the ion-electron system (eV)
  ---------------------------------------------------
  alpha Z        PSCENC =       486.99455823
  Ewald energy   TEWEN  =     -7519.45284493
  -Hartree energ DENC   =     -1585.25412070
  -exchange      EXHF   =         0.00000000
  -V(xc)+E(xc)   XCENC  =       355.25450444
  PAW double counting   =      6822.26835318    -6834.95433714
  entropy T*S    EENTRO =         0.00000000
  eigenvalues    EBANDS =      -256.21322530
  atomic energy  EATOM  =      8400.32230685
  Solvation  Ediel_sol  =         0.00000000
  ---------------------------------------------------
  free energy    TOTEN  =      -131.03480538 eV

  energy without entropy =     -131.03480538  energy(sigma->0) =     -131.03480538


--------------------------------------------------------------------------------------------------------




--------------------------------------- Iteration      1(   6)  ---------------------------------------


    POTLOK:  cpu time    0.0378: real time    0.0395
    SETDIJ:  cpu time    0.0088: real time    0.0088
atom =   1  type =  1  l = 0
 
 onsite density matrix
 
spin component  1
 
  1.0588
 
spin component  2
 
  1.0572
 
 occupancies and eigenvectors
 
  o =  1.0572  v =  0.0000  1.0000      0.0000  0.0000
  o =  1.0588  v =  1.0000  0.0000      0.0000  0.0000
atom =   2  type =  1  l = 0
 
 onsite density matrix
 
spin component  1
 
  1.0569
 
spin component  2
 
  1.0569
 
 occupancies and eigenvectors
 
  o =  1.0569  v =  0.0000  1.0000      0.0000  0.0000
  o =  1.0569  v =  1.0000  0.0000      0.0000  0.0000
atom =   3  type =  1  l = 0
 
 onsite density matrix
 
spin component  1
 
  1.0569
 
spin component  2
 
  1.0569
 
 occupancies and eigenvectors
 
  o =  1.0569  v =  0.0000  1.0000      0.0000  0.0000
  o =  1.0569  v =  1.0000  0.0000      0.0000  0.0000
atom =   4  type =  2  l = 2
 
 onsite density matrix
 
spin component  1
 
  0.9936 -0.0000  0.0000 -0.0027 -0.0000
 -0.0000  0.9926 -0.0024  0.0000  0.0041
  0.0000 -0.0024  0.3706  0.0000 -0.0528
 -0.0027  0.0000  0.0000  0.9936 -0.0000
 -0.0000  0.0041 -0.0528 -0.0000  0.4316
 
spin component  2
 
  0.0034  0.0000 -0.0000  0.0020  0.0000
  0.0000  0.0079  0.0016 -0.0000 -0.0028
 -0.0000  0.0016  0.4325  0.0000  0.0351
  0.0020 -0.0000  0.0000  0.0034 -0.0000
  0.0000 -0.0028  0.0351 -0.0000  0.3920
 
 occupancies and eigenvectors
 
  o =  0.0014  v =  0.0000  0.0000  0.0000  0.0000  0.0000 -0.7071 -0.0000 -0.0000  0.7071 -0.0000      0.0000  0.0000  0.0000  0.0000  0.0000  0.0000  0.0000  0.0000  0.0000  0.0000
  o =  0.0054  v =  0.0000  0.0000  0.0000  0.0000  0.0000 -0.7071  0.0000  0.0000 -0.7071  0.0000      0.0000  0.0000  0.0000  0.0000  0.0000  0.0000  0.0000  0.0000  0.0000  0.0000
  o =  0.0078  v =  0.0000  0.0000  0.0000  0.0000  0.0000  0.0000  1.0000 -0.0044  0.0000  0.0076      0.0000  0.0000  0.0000  0.0000  0.0000  0.0000  0.0000  0.0000  0.0000  0.0000
  o =  0.3400  v =  0.0000 -0.0000  0.8660 -0.0000  0.5000  0.0000  0.0000  0.0000  0.0000  0.0000      0.0000  0.0000  0.0000  0.0000  0.0000  0.0000  0.0000  0.0000  0.0000  0.0000
  o =  0.3718  v =  0.0000  0.0000  0.0000  0.0000  0.0000  0.0000 -0.0088 -0.5000 -0.0000  0.8660      0.0000  0.0000  0.0000  0.0000  0.0000  0.0000  0.0000  0.0000  0.0000  0.0000
  o =  0.4528  v =  0.0000  0.0000  0.0000  0.0000  0.0000  0.0000  0.0000 -0.8660  0.0000 -0.5000      0.0000  0.0000  0.0000  0.0000  0.0000  0.0000  0.0000  0.0000  0.0000  0.0000
  o =  0.4620  v =  0.0000 -0.0090 -0.5000  0.0000  0.8660  0.0000  0.0000  0.0000  0.0000  0.0000      0.0000  0.0000  0.0000  0.0000  0.0000  0.0000  0.0000  0.0000  0.0000  0.0000
  o =  0.9909  v =  0.7071 -0.0000  0.0000  0.7071 -0.0000  0.0000  0.0000  0.0000  0.0000  0.0000      0.0000  0.0000  0.0000  0.0000  0.0000  0.0000  0.0000  0.0000  0.0000  0.0000
  o =  0.9927  v = -0.0000 -1.0000  0.0045  0.0000 -0.0078  0.0000  0.0000  0.0000  0.0000  0.0000      0.0000  0.0000  0.0000  0.0000  0.0000  0.0000  0.0000  0.0000  0.0000  0.0000
  o =  0.9962  v = -0.7071  0.0000 -0.0000  0.7071  0.0000  0.0000  0.0000  0.0000  0.0000  0.0000      0.0000  0.0000  0.0000  0.0000  0.0000  0.0000  0.0000  0.0000  0.0000  0.0000
atom =   5  type =  2  l = 2
 
 onsite density matrix
 
spin component  1
 
  0.9936  0.0000  0.0000 -0.0027 -0.0000
  0.0000  0.9926 -0.0024 -0.0000  0.0041
  0.0000 -0.0024  0.3706 -0.0000 -0.0528
 -0.0027 -0.0000 -0.0000  0.9936 -0.0000
 -0.0000  0.0041 -0.0528 -0.0000  0.4316
 
spin component  2
 
  0.0034 -0.0000 -0.0000  0.0020 -0.0000
 -0.0000  0.0079  0.0016  0.0000 -0.0028
 -0.0000  0.0016  0.4325  0.0000  0.0351
  0.0020  0.0000  0.0000  0.0034 -0.0000
 -0.0000 -0.0028  0.0351 -0.0000  0.3920
 
 occupancies and eigenvectors
 
  o =  0.0014  v =  0.0000  0.0000  0.0000  0.0000  0.0000 -0.7071  0.0000 -0.0000  0.7071 -0.0000      0.0000  0.0000  0.0000  0.0000  0.0000  0.0000  0.0000  0.0000  0.0000  0.0000
  o =  0.0054  v =  0.0000  0.0000  0.0000  0.0000  0.0000  0.7071  0.0000 -0.0000  0.7071 -0.0000      0.0000  0.0000  0.0000  0.0000  0.0000  0.0000  0.0000  0.0000  0.0000  0.0000
  o =  0.0078  v =  0.0000  0.0000  0.0000  0.0000  0.0000  0.0000 -1.0000  0.0044  0.0000 -0.0076      0.0000  0.0000  0.0000  0.0000  0.0000  0.0000  0.0000  0.0000  0.0000  0.0000
  o =  0.3400  v =  0.0000  0.0000 -0.8660  0.0000 -0.5000  0.0000  0.0000  0.0000  0.0000  0.0000      0.0000  0.0000  0.0000  0.0000  0.0000  0.0000  0.0000  0.0000  0.0000  0.0000
  o =  0.3718  v =  0.0000  0.0000  0.0000  0.0000  0.0000  0.0000 -0.0088 -0.5000 -0.0000  0.8660      0.0000  0.0000  0.0000  0.0000  0.0000  0.0000  0.0000  0.0000  0.0000  0.0000
  o =  0.4528  v =  0.0000  0.0000  0.0000  0.0000  0.0000  0.0000 -0.0000  0.8660  0.0000  0.5000      0.0000  0.0000  0.0000  0.0000  0.0000  0.0000  0.0000  0.0000  0.0000  0.0000
  o =  0.4620  v =  0.0000  0.0090  0.5000  0.0000 -0.8660  0.0000  0.0000  0.0000  0.0000  0.0000      0.0000  0.0000  0.0000  0.0000  0.0000  0.0000  0.0000  0.0000  0.0000  0.0000
  o =  0.9909  v = -0.7071  0.0000  0.0000 -0.7071 -0.0000  0.0000  0.0000  0.0000  0.0000  0.0000      0.0000  0.0000  0.0000  0.0000  0.0000  0.0000  0.0000  0.0000  0.0000  0.0000
  o =  0.9927  v =  0.0000 -1.0000  0.0045  0.0000 -0.0078  0.0000  0.0000  0.0000  0.0000  0.0000      0.0000  0.0000  0.0000  0.0000  0.0000  0.0000  0.0000  0.0000  0.0000  0.0000
  o =  0.9962  v = -0.7071  0.0000 -0.0000  0.7071  0.0000  0.0000  0.0000  0.0000  0.0000  0.0000      0.0000  0.0000  0.0000  0.0000  0.0000  0.0000  0.0000  0.0000  0.0000  0.0000
atom =   6  type =  3  l = 2
 
 onsite density matrix
 
spin component  1
 
  0.8976  0.0000  0.0000 -0.0096  0.0000
  0.0000  0.8740  0.0008  0.0000 -0.0014
  0.0000  0.0008  1.3065  0.0000 -0.0038
 -0.0096  0.0000  0.0000  0.8976  0.0000
  0.0000 -0.0014 -0.0038  0.0000  1.3109
 
spin component  2
 
  0.8053  0.0000  0.0000  0.0172  0.0000
  0.0000  0.8449 -0.0013  0.0000  0.0022
  0.0000 -0.0013  0.1850  0.0000  0.0005
  0.0172  0.0000  0.0000  0.8053  0.0000
  0.0000  0.0022  0.0005  0.0000  0.1845
 
 occupancies and eigenvectors
 
  o =  0.1842  v =  0.0000  0.0000  0.0000  0.0000  0.0000  0.0000 -0.0038 -0.5000  0.0000  0.8660      0.0000  0.0000  0.0000  0.0000  0.0000  0.0000  0.0000  0.0000  0.0000  0.0000
  o =  0.1853  v =  0.0000  0.0000  0.0000  0.0000  0.0000  0.0000  0.0000  0.8660  0.0000  0.5000      0.0000  0.0000  0.0000  0.0000  0.0000  0.0000  0.0000  0.0000  0.0000  0.0000
  o =  0.7881  v =  0.0000  0.0000  0.0000  0.0000  0.0000 -0.7071  0.0000  0.0000  0.7071  0.0000      0.0000  0.0000  0.0000  0.0000  0.0000  0.0000  0.0000  0.0000  0.0000  0.0000
  o =  0.8225  v =  0.0000  0.0000  0.0000  0.0000  0.0000 -0.7071  0.0000  0.0000 -0.7071  0.0000      0.0000  0.0000  0.0000  0.0000  0.0000  0.0000  0.0000  0.0000  0.0000  0.0000
  o =  0.8449  v =  0.0000  0.0000  0.0000  0.0000  0.0000  0.0000  1.0000 -0.0019  0.0000  0.0033      0.0000  0.0000  0.0000  0.0000  0.0000  0.0000  0.0000  0.0000  0.0000  0.0000
  o =  0.8740  v =  0.0000  1.0000 -0.0018  0.0000  0.0031  0.0000  0.0000  0.0000  0.0000  0.0000      0.0000  0.0000  0.0000  0.0000  0.0000  0.0000  0.0000  0.0000  0.0000  0.0000
  o =  0.8880  v = -0.7071  0.0000  0.0000 -0.7071  0.0000  0.0000  0.0000  0.0000  0.0000  0.0000      0.0000  0.0000  0.0000  0.0000  0.0000  0.0000  0.0000  0.0000  0.0000  0.0000
  o =  0.9073  v = -0.7071  0.0000  0.0000  0.7071  0.0000  0.0000  0.0000  0.0000  0.0000  0.0000      0.0000  0.0000  0.0000  0.0000  0.0000  0.0000  0.0000  0.0000  0.0000  0.0000
  o =  1.3043  v =  0.0000  0.0000 -0.8660  0.0000 -0.5000  0.0000  0.0000  0.0000  0.0000  0.0000      0.0000  0.0000  0.0000  0.0000  0.0000  0.0000  0.0000  0.0000  0.0000  0.0000
  o =  1.3131  v =  0.0000 -0.0036 -0.5000  0.0000  0.8660  0.0000  0.0000  0.0000  0.0000  0.0000      0.0000  0.0000  0.0000  0.0000  0.0000  0.0000  0.0000  0.0000  0.0000  0.0000
atom =   7  type =  4  l = 0
 
 onsite density matrix
 
spin component  1
 
  0.8187
 
spin component  2
 
  0.8104
 
 occupancies and eigenvectors
 
  o =  0.8104  v =  0.0000  1.0000      0.0000  0.0000
  o =  0.8187  v =  1.0000  0.0000      0.0000  0.0000
atom =   8  type =  4  l = 0
 
 onsite density matrix
 
spin component  1
 
  0.8153
 
spin component  2
 
  0.8156
 
 occupancies and eigenvectors
 
  o =  0.8153  v =  1.0000  0.0000      0.0000  0.0000
  o =  0.8156  v =  0.0000  1.0000      0.0000  0.0000
atom =   9  type =  4  l = 0
 
 onsite density matrix
 
spin component  1
 
  0.8153
 
spin component  2
 
  0.8156
 
 occupancies and eigenvectors
 
  o =  0.8153  v =  1.0000  0.0000      0.0000  0.0000
  o =  0.8156  v =  0.0000  1.0000      0.0000  0.0000
atom =  10  type =  4  l = 0
 
 onsite density matrix
 
spin component  1
 
  0.8158
 
spin component  2
 
  0.8142
 
 occupancies and eigenvectors
 
  o =  0.8142  v =  0.0000  1.0000      0.0000  0.0000
  o =  0.8158  v =  1.0000  0.0000      0.0000  0.0000
atom =  11  type =  4  l = 0
 
 onsite density matrix
 
spin component  1
 
  0.8158
 
spin component  2
 
  0.8142
 
 occupancies and eigenvectors
 
  o =  0.8142  v =  0.0000  1.0000      0.0000  0.0000
  o =  0.8158  v =  1.0000  0.0000      0.0000  0.0000
atom =  12  type =  4  l = 0
 
 onsite density matrix
 
spin component  1
 
  0.8112
 
spin component  2
 
  0.8184
 
 occupancies and eigenvectors
 
  o =  0.8112  v =  1.0000  0.0000      0.0000  0.0000
  o =  0.8184  v =  0.0000  1.0000      0.0000  0.0000
atom =  13  type =  4  l = 0
 
 onsite density matrix
 
spin component  1
 
  0.8158
 
spin component  2
 
  0.8142
 
 occupancies and eigenvectors
 
  o =  0.8142  v =  0.0000  1.0000      0.0000  0.0000
  o =  0.8158  v =  1.0000  0.0000      0.0000  0.0000
atom =  14  type =  4  l = 0
 
 onsite density matrix
 
spin component  1
 
  0.8112
 
spin component  2
 
  0.8184
 
 occupancies and eigenvectors
 
  o =  0.8112  v =  1.0000  0.0000      0.0000  0.0000
  o =  0.8184  v =  0.0000  1.0000      0.0000  0.0000
atom =  15  type =  4  l = 0
 
 onsite density matrix
 
spin component  1
 
  0.8158
 
spin component  2
 
  0.8142
 
 occupancies and eigenvectors
 
  o =  0.8142  v =  0.0000  1.0000      0.0000  0.0000
  o =  0.8158  v =  1.0000  0.0000      0.0000  0.0000
    EDDIAG:  cpu time    0.1811: real time    0.1841
  RMM-DIIS:  cpu time    1.3559: real time    1.3594
    ORTHCH:  cpu time    0.0169: real time    0.0169
 BZINTS: Fermi energy:  8.163498;111.000000 electrons
         Band energy:-212.401809;  BLOECHL correction: -0.197916
       DOS:  cpu time    0.0252: real time    0.0252
    CHARGE:  cpu time    0.0716: real time    0.0717
    MIXING:  cpu time    0.0019: real time    0.0019
    --------------------------------------------
      LOOP:  cpu time    1.6992: real time    1.7078

 eigenvalue-minimisations  :  7426
 total energy-change (2. order) : 0.1350495E+02  (-0.3604904E+02)
 number of electron     110.9999995 magnetization       9.4348621
 augmentation part       15.1173389 magnetization       6.8012010

 Broyden mixing:
  rms(total) = 0.75080E+01    rms(broyden)= 0.75079E+01
  rms(prec ) = 0.76171E+01
  weight for this iteration     100.00

 eigenvalues of (default mixing * dielectric matrix)
  average eigenvalue GAMMA=   0.0015
  0.0015

 Free energy of the ion-electron system (eV)
  ---------------------------------------------------
  alpha Z        PSCENC =       486.99455823
  Ewald energy   TEWEN  =     -7519.45284493
  -Hartree energ DENC   =     -1632.12592159
  -exchange      EXHF   =         0.00000000
  -V(xc)+E(xc)   XCENC  =       362.95330245
  PAW double counting   =      7594.78797738    -7598.60742951
  entropy T*S    EENTRO =         0.00000000
  eigenvalues    EBANDS =      -212.40180898
  atomic energy  EATOM  =      8400.32230685
  Solvation  Ediel_sol  =         0.00000000
  ---------------------------------------------------
  free energy    TOTEN  =      -117.52986010 eV

  energy without entropy =     -117.52986010  energy(sigma->0) =     -117.52986010


--------------------------------------------------------------------------------------------------------




--------------------------------------- Iteration      1(   7)  ---------------------------------------


    POTLOK:  cpu time    0.0377: real time    0.0379
    SETDIJ:  cpu time    0.0096: real time    0.0097
atom =   1  type =  1  l = 0
 
 onsite density matrix
 
spin component  1
 
  1.0503
 
spin component  2
 
  1.0498
 
 occupancies and eigenvectors
 
  o =  1.0498  v =  0.0000  1.0000      0.0000  0.0000
  o =  1.0503  v =  1.0000  0.0000      0.0000  0.0000
atom =   2  type =  1  l = 0
 
 onsite density matrix
 
spin component  1
 
  1.0485
 
spin component  2
 
  1.0492
 
 occupancies and eigenvectors
 
  o =  1.0485  v =  1.0000  0.0000      0.0000  0.0000
  o =  1.0492  v =  0.0000  1.0000      0.0000  0.0000
atom =   3  type =  1  l = 0
 
 onsite density matrix
 
spin component  1
 
  1.0485
 
spin component  2
 
  1.0492
 
 occupancies and eigenvectors
 
  o =  1.0485  v =  1.0000  0.0000      0.0000  0.0000
  o =  1.0492  v =  0.0000  1.0000      0.0000  0.0000
atom =   4  type =  2  l = 2
 
 onsite density matrix
 
spin component  1
 
  0.9620 -0.0000 -0.0000 -0.0019 -0.0000
 -0.0000  0.9617 -0.0017  0.0000  0.0030
 -0.0000 -0.0017  0.4326  0.0000 -0.0509
 -0.0019  0.0000  0.0000  0.9620 -0.0000
 -0.0000  0.0030 -0.0509 -0.0000  0.4913
 
spin component  2
 
  0.0430 -0.0000  0.0000  0.0016  0.0000
 -0.0000  0.0480  0.0011 -0.0000 -0.0019
  0.0000  0.0011  0.3864 -0.0000  0.0296
  0.0016 -0.0000 -0.0000  0.0430 -0.0000
  0.0000 -0.0019  0.0296 -0.0000  0.3522
 
 occupancies and eigenvectors
 
  o =  0.0414  v =  0.0000  0.0000  0.0000  0.0000  0.0000 -0.7071 -0.0000  0.0000  0.7071 -0.0000      0.0000  0.0000  0.0000  0.0000  0.0000  0.0000  0.0000  0.0000  0.0000  0.0000
  o =  0.0446  v =  0.0000  0.0000  0.0000  0.0000  0.0000  0.7071 -0.0000  0.0000  0.7071 -0.0000      0.0000  0.0000  0.0000  0.0000  0.0000  0.0000  0.0000  0.0000  0.0000  0.0000
  o =  0.0480  v =  0.0000  0.0000  0.0000  0.0000  0.0000  0.0000 -1.0000  0.0039 -0.0000 -0.0067      0.0000  0.0000  0.0000  0.0000  0.0000  0.0000  0.0000  0.0000  0.0000  0.0000
  o =  0.3351  v =  0.0000  0.0000  0.0000  0.0000  0.0000  0.0000  0.0077  0.5000 -0.0000 -0.8660      0.0000  0.0000  0.0000  0.0000  0.0000  0.0000  0.0000  0.0000  0.0000  0.0000
  o =  0.4032  v = -0.0000  0.0000 -0.8660 -0.0000 -0.5000  0.0000  0.0000  0.0000  0.0000  0.0000      0.0000  0.0000  0.0000  0.0000  0.0000  0.0000  0.0000  0.0000  0.0000  0.0000
  o =  0.4035  v =  0.0000  0.0000  0.0000  0.0000  0.0000  0.0000  0.0000 -0.8660 -0.0000 -0.5000      0.0000  0.0000  0.0000  0.0000  0.0000  0.0000  0.0000  0.0000  0.0000  0.0000
  o =  0.5207  v =  0.0000 -0.0078 -0.5000  0.0000  0.8660  0.0000  0.0000  0.0000  0.0000  0.0000      0.0000  0.0000  0.0000  0.0000  0.0000  0.0000  0.0000  0.0000  0.0000  0.0000
  o =  0.9601  v =  0.7071  0.0000 -0.0000  0.7071 -0.0000  0.0000  0.0000  0.0000  0.0000  0.0000      0.0000  0.0000  0.0000  0.0000  0.0000  0.0000  0.0000  0.0000  0.0000  0.0000
  o =  0.9617  v =  0.0000 -1.0000  0.0039  0.0000 -0.0068  0.0000  0.0000  0.0000  0.0000  0.0000      0.0000  0.0000  0.0000  0.0000  0.0000  0.0000  0.0000  0.0000  0.0000  0.0000
  o =  0.9639  v = -0.7071  0.0000 -0.0000  0.7071 -0.0000  0.0000  0.0000  0.0000  0.0000  0.0000      0.0000  0.0000  0.0000  0.0000  0.0000  0.0000  0.0000  0.0000  0.0000  0.0000
atom =   5  type =  2  l = 2
 
 onsite density matrix
 
spin component  1
 
  0.9620  0.0000 -0.0000 -0.0019 -0.0000
  0.0000  0.9617 -0.0017 -0.0000  0.0030
 -0.0000 -0.0017  0.4326 -0.0000 -0.0509
 -0.0019 -0.0000 -0.0000  0.9620 -0.0000
 -0.0000  0.0030 -0.0509 -0.0000  0.4913
 
spin component  2
 
  0.0430  0.0000  0.0000  0.0016 -0.0000
  0.0000  0.0480  0.0011  0.0000 -0.0019
  0.0000  0.0011  0.3864 -0.0000  0.0296
  0.0016  0.0000 -0.0000  0.0430 -0.0000
 -0.0000 -0.0019  0.0296 -0.0000  0.3522
 
 occupancies and eigenvectors
 
  o =  0.0414  v =  0.0000  0.0000  0.0000  0.0000  0.0000 -0.7071  0.0000 -0.0000  0.7071  0.0000      0.0000  0.0000  0.0000  0.0000  0.0000  0.0000  0.0000  0.0000  0.0000  0.0000
  o =  0.0446  v =  0.0000  0.0000  0.0000  0.0000  0.0000 -0.7071 -0.0000  0.0000 -0.7071 -0.0000      0.0000  0.0000  0.0000  0.0000  0.0000  0.0000  0.0000  0.0000  0.0000  0.0000
  o =  0.0480  v =  0.0000  0.0000  0.0000  0.0000  0.0000  0.0000  1.0000 -0.0039 -0.0000  0.0067      0.0000  0.0000  0.0000  0.0000  0.0000  0.0000  0.0000  0.0000  0.0000  0.0000
  o =  0.3351  v =  0.0000  0.0000  0.0000  0.0000  0.0000  0.0000 -0.0077 -0.5000 -0.0000  0.8660      0.0000  0.0000  0.0000  0.0000  0.0000  0.0000  0.0000  0.0000  0.0000  0.0000
  o =  0.4032  v = -0.0000  0.0000 -0.8660  0.0000 -0.5000  0.0000  0.0000  0.0000  0.0000  0.0000      0.0000  0.0000  0.0000  0.0000  0.0000  0.0000  0.0000  0.0000  0.0000  0.0000
[...]
  0.000   0.000   0.000   0.000   2.031   0.000   0.000  -0.010   0.000   0.000   0.000   0.000   0.000   0.000   0.000   0.000
  0.000   0.000  -0.010  -0.001   0.000   0.011   0.000   0.000   0.000   0.000   0.000   0.000   0.000   0.000   0.000   0.000
  0.000   0.000  -0.001  -0.010   0.000   0.000   0.011   0.000   0.000   0.000   0.000   0.000   0.000   0.000   0.000   0.000
  0.000   0.000   0.000   0.000  -0.010   0.000   0.000   0.011   0.000   0.000   0.000   0.000   0.000   0.000   0.000   0.000
  0.000   0.000   0.000   0.000   0.000   0.000   0.000   0.000   1.168   0.000   0.000  -0.038   0.000  -0.537   0.000   0.000
 -0.002  -0.004   0.000   0.000   0.000   0.000   0.000   0.000   0.000   1.257   0.011   0.000  -0.019   0.000  -0.575  -0.003
  0.001   0.014   0.000   0.000   0.000   0.000   0.000   0.000   0.000   0.011   0.908   0.000  -0.010   0.000  -0.003  -0.406
  0.000   0.000   0.000   0.000   0.000   0.000   0.000   0.000  -0.038   0.000   0.000   1.168   0.000   0.018   0.000   0.000
 -0.001  -0.024   0.000   0.000   0.000   0.000   0.000   0.000   0.000  -0.019  -0.010   0.000   0.919   0.000   0.005   0.004
  0.000   0.000   0.000   0.000   0.000   0.000   0.000   0.000  -0.537   0.000   0.000   0.018   0.000   0.250   0.000   0.000
  0.000   0.005   0.000   0.000   0.000   0.000   0.000   0.000   0.000  -0.575  -0.003   0.000   0.005   0.000   0.266   0.001
 -0.001  -0.006   0.000   0.000   0.000   0.000   0.000   0.000   0.000  -0.003  -0.406   0.000   0.004   0.000   0.001   0.183
  0.000   0.000   0.000   0.000   0.000   0.000   0.000   0.000   0.018   0.000   0.000  -0.537   0.000  -0.009   0.000   0.000
  0.001   0.010   0.000   0.000   0.000   0.000   0.000   0.000   0.000   0.005   0.004   0.000  -0.410   0.000  -0.001  -0.001
  0.000   0.000   0.021  -0.001   0.000  -0.006   0.001   0.000   0.000   0.000   0.000   0.000   0.000   0.000   0.000   0.000
  0.000   0.000   0.000   0.000   0.006   0.000   0.000   0.002   0.000   0.000   0.000   0.000   0.000   0.000   0.000   0.000
  0.000   0.000   0.021   0.009   0.000  -0.007   0.000   0.000   0.000   0.000   0.000   0.000   0.000   0.000   0.000   0.000
  0.000   0.000  -0.005  -0.029   0.000  -0.001   0.009   0.000   0.000   0.000   0.000   0.000   0.000   0.000   0.000   0.000
  0.000   0.000   0.000   0.000   0.015   0.000   0.000  -0.006   0.000   0.000   0.000   0.000   0.000   0.000   0.000   0.000
  0.000   0.000  -0.007  -0.004   0.000   0.001   0.002   0.000   0.000   0.000   0.000   0.000   0.000   0.000   0.000   0.000
  0.000   0.000   0.000   0.000  -0.019   0.000   0.000   0.007   0.000   0.000   0.000   0.000   0.000   0.000   0.000   0.000
  0.000   0.000  -0.027   0.002   0.000   0.008  -0.002   0.000   0.000   0.000   0.000   0.000   0.000   0.000   0.000   0.000
  0.000   0.000   0.000   0.000  -0.006   0.000   0.000  -0.003   0.000   0.000   0.000   0.000   0.000   0.000   0.000   0.000
  0.000   0.000  -0.029  -0.012   0.000   0.010   0.000   0.000   0.000   0.000   0.000   0.000   0.000   0.000   0.000   0.000
  0.000   0.000   0.006   0.039   0.000   0.001  -0.012   0.000   0.000   0.000   0.000   0.000   0.000   0.000   0.000   0.000
  0.000   0.000   0.000   0.000  -0.020   0.000   0.000   0.007   0.000   0.000   0.000   0.000   0.000   0.000   0.000   0.000
  0.000   0.000   0.010   0.006   0.000  -0.001  -0.003   0.000   0.000   0.000   0.000   0.000   0.000   0.000   0.000   0.000
  0.000   0.000   0.000   0.000   0.026   0.000   0.000  -0.010   0.000   0.000   0.000   0.000   0.000   0.000   0.000   0.000
 total augmentation occupancy for first ion, spin component:           2
  0.000   0.001   0.000   0.000   0.000   0.000   0.000   0.000   0.000   0.000  -0.000   0.000   0.000   0.000  -0.000   0.000
  0.001  -0.003   0.000   0.000   0.000   0.000   0.000   0.000   0.000   0.003  -0.001   0.000   0.002   0.000  -0.002   0.000
  0.000   0.000   0.000   0.000   0.000   0.000  -0.000   0.000   0.000   0.000   0.000   0.000   0.000   0.000   0.000   0.000
  0.000   0.000   0.000   0.000   0.000  -0.000   0.000   0.000   0.000   0.000   0.000   0.000   0.000   0.000   0.000   0.000
  0.000   0.000   0.000   0.000   0.000   0.000   0.000  -0.000   0.000   0.000   0.000   0.000   0.000   0.000   0.000   0.000
  0.000   0.000   0.000  -0.000   0.000   0.000   0.000   0.000   0.000   0.000   0.000   0.000   0.000   0.000   0.000   0.000
  0.000   0.000  -0.000   0.000   0.000   0.000   0.000   0.000   0.000   0.000   0.000   0.000   0.000   0.000   0.000   0.000
  0.000   0.000   0.000   0.000  -0.000   0.000   0.000   0.000   0.000   0.000   0.000   0.000   0.000   0.000   0.000   0.000
  0.000   0.000   0.000   0.000   0.000   0.000   0.000   0.000  -0.000   0.000   0.000   0.014   0.000   0.000   0.000   0.000
  0.000   0.003   0.000   0.000   0.000   0.000   0.000   0.000   0.000  -0.003  -0.006   0.000   0.011   0.000   0.001   0.002
 -0.000  -0.001   0.000   0.000   0.000   0.000   0.000   0.000   0.000  -0.006   0.024   0.000   0.000   0.000   0.002  -0.009
  0.000   0.000   0.000   0.000   0.000   0.000   0.000   0.000   0.014   0.000   0.000  -0.000   0.000  -0.006   0.000   0.000
  0.000   0.002   0.000   0.000   0.000   0.000   0.000   0.000   0.000   0.011   0.000   0.000   0.023   0.000  -0.004  -0.000
  0.000   0.000   0.000   0.000   0.000   0.000   0.000   0.000   0.000   0.000   0.000  -0.006   0.000   0.000   0.000   0.000
 -0.000  -0.002   0.000   0.000   0.000   0.000   0.000   0.000   0.000   0.001   0.002   0.000  -0.004   0.000  -0.000  -0.001
  0.000   0.000   0.000   0.000   0.000   0.000   0.000   0.000   0.000   0.002  -0.009   0.000  -0.000   0.000  -0.001   0.003
  0.000   0.000   0.000   0.000   0.000   0.000   0.000   0.000  -0.006   0.000   0.000   0.000   0.000   0.002   0.000   0.000
 -0.000  -0.001   0.000   0.000   0.000   0.000   0.000   0.000   0.000  -0.004  -0.000   0.000  -0.009   0.000   0.001  -0.000
  0.000   0.000   0.000  -0.000   0.000   0.000  -0.000   0.000   0.000   0.000   0.000   0.000   0.000   0.000   0.000   0.000
  0.000   0.000   0.000   0.000  -0.000   0.000   0.000  -0.001   0.000   0.000   0.000   0.000   0.000   0.000   0.000   0.000
  0.000   0.000   0.000  -0.000   0.000   0.000   0.000   0.000   0.000   0.000   0.000   0.000   0.000   0.000   0.000   0.000
  0.000   0.000   0.000  -0.000   0.000   0.000  -0.001   0.000   0.000   0.000   0.000   0.000   0.000   0.000   0.000   0.000
  0.000   0.000   0.000   0.000   0.000   0.000   0.000   0.000   0.000   0.000   0.000   0.000   0.000   0.000   0.000   0.000
  0.000   0.000  -0.000  -0.000   0.000  -0.000  -0.000   0.000   0.000   0.000   0.000   0.000   0.000   0.000   0.000   0.000
  0.000   0.000   0.000   0.000  -0.000   0.000   0.000  -0.000   0.000   0.000   0.000   0.000   0.000   0.000   0.000   0.000
  0.000   0.000   0.000  -0.000   0.000  -0.001   0.001   0.000   0.000   0.000   0.000   0.000   0.000   0.000   0.000   0.000
  0.000   0.000   0.000   0.000  -0.001   0.000   0.000   0.002   0.000   0.000   0.000   0.000   0.000   0.000   0.000   0.000
  0.000   0.000   0.000   0.000   0.000  -0.001  -0.000   0.000   0.000   0.000   0.000   0.000   0.000   0.000   0.000   0.000
  0.000   0.000   0.000  -0.000   0.000  -0.001   0.001   0.000   0.000   0.000   0.000   0.000   0.000   0.000   0.000   0.000
  0.000   0.000   0.000   0.000   0.000   0.000   0.000  -0.001   0.000   0.000   0.000   0.000   0.000   0.000   0.000   0.000
  0.000   0.000  -0.000  -0.000   0.000   0.001   0.000   0.000   0.000   0.000   0.000   0.000   0.000   0.000   0.000   0.000
  0.000   0.000   0.000   0.000  -0.000   0.000   0.000   0.001   0.000   0.000   0.000   0.000   0.000   0.000   0.000   0.000


------------------------ aborting loop because EDIFF is reached ----------------------------------------


 


 total charge     
 
# of ion       s       p       d       f       tot
--------------------------------------------------
    1        1.998   5.696   0.478   0.185   8.357
    2        1.998   5.698   0.485   0.188   8.368
    3        1.998   5.698   0.485   0.187   8.368
    4        0.331   0.512   4.866   0.000   5.709
    5        0.331   0.512   4.865   0.000   5.708
    6        0.392   0.559   8.318   0.000   9.270
    7        1.555   3.455   0.000   0.000   5.010
    8        1.566   3.457   0.000   0.000   5.023
    9        1.566   3.457   0.000   0.000   5.022
   10        1.562   3.458   0.000   0.000   5.020
   11        1.562   3.458   0.000   0.000   5.020
   12        1.562   3.468   0.000   0.000   5.030
   13        1.561   3.460   0.000   0.000   5.021
   14        1.561   3.471   0.000   0.000   5.032
   15        1.561   3.460   0.000   0.000   5.021
--------------------------------------------------
tot         21.104  49.820  19.496   0.560  90.979

 


 magnetization (x)
 
# of ion       s       p       d       f       tot
--------------------------------------------------
    1       -0.000   0.001   0.007   0.003   0.010
    2       -0.000   0.001   0.008   0.004   0.013
    3       -0.000   0.001   0.009   0.003   0.013
    4        0.024   0.029   3.551   0.000   3.604
    5        0.024   0.029   3.550   0.000   3.603
    6        0.012   0.001   1.687   0.000   1.700
    7        0.006   0.021   0.000   0.000   0.028
    8        0.008  -0.028   0.000   0.000  -0.020
    9        0.008  -0.028   0.000   0.000  -0.021
   10        0.005  -0.025   0.000   0.000  -0.020
   11        0.005  -0.025   0.000   0.000  -0.019
   12        0.002  -0.018   0.000   0.000  -0.016
   13        0.005  -0.021   0.000   0.000  -0.016
   14        0.002  -0.015   0.000   0.000  -0.014
   15        0.005  -0.021   0.000   0.000  -0.016
--------------------------------------------------
tot          0.106  -0.099   8.812   0.011   8.830

 
    CHARGE:  cpu time    0.0719: real time    0.0721
    FORLOC:  cpu time    0.0042: real time    0.0042
    FORNL :  cpu time    0.3815: real time    0.3825
    STRESS:  cpu time    1.1554: real time    1.1591
    FORCOR:  cpu time    0.0429: real time    0.0431
    FORHAR:  cpu time    0.0080: real time    0.0081
    MIXING:  cpu time    0.0023: real time    0.0023
    OFIELD:  cpu time    0.0001: real time    0.0002

  FORCE on cell =-STRESS in cart. coord.  units (eV):
  Direction    XX          YY          ZZ          XY          YZ          ZX
  --------------------------------------------------------------------------------------
  Alpha Z   486.99456   486.99456   486.99456
  Ewald   -2507.80707 -2505.82928 -2505.82933     0.00000    10.55548     0.00000
  Hartree   560.23940   536.09746   536.09750     0.00000    11.18322    -0.00000
  E(xc)    -512.88834  -512.83050  -512.83044    -0.00000    -0.01707    -0.00000
  Local    -323.30488  -292.56588  -292.56556     0.00000   -21.31979    -0.00000
  n-local   200.04571   201.35361   201.20162     0.23529     0.28312     0.23186
  augment   174.08778   170.99957   170.99834     0.00000    -0.01465    -0.00000
  Kinetic  1922.95011  1915.03196  1915.70590    -0.44389    -0.71058    -0.44824
  Fock        0.00000     0.00000     0.00000     0.00000     0.00000     0.00000
  -------------------------------------------------------------------------------------
  Total       0.31726    -0.48796    -0.48796     0.00000    -0.06185     0.00000
  in kB       2.85424    -4.38996    -4.38996     0.00000    -0.55647     0.00000
  external pressure =       -1.98 kB  Pullay stress =        0.00 kB


 VOLUME and BASIS-vectors are now :
 -----------------------------------------------------------------------------
  energy-cutoff  :      520.00
  volume of cell :      178.09
      direct lattice vectors                 reciprocal lattice vectors
    -3.934670187  0.000000000  0.000000000    -0.254150908  0.000000000  0.000000000
     0.000000000  3.884378287  3.884378287     0.000000000  0.171631153  0.085810303
     0.000000000  3.883900858 -7.768279135     0.000000000  0.085820851 -0.085820851

  length of vectors
     3.934670187  5.493340454  8.685093356     0.254150908  0.191887104  0.121369011


 FORCES acting on ions
    electron-ion (+dipol)            ewald-force                    non-local-force                 convergence-correction
 -----------------------------------------------------------------------------------------------
   0.108E-14 -.222E-12 -.287E-12   -.177E-13 -.287E-11 -.284E-11   0.000E+00 -.108E-18 0.000E+00   0.491E-14 0.455E-13 0.338E-12
   0.378E-14 -.688E+02 0.688E+02   0.613E-13 0.681E+02 -.681E+02   -.847E-21 0.635E+00 -.635E+00   0.525E-14 0.393E-01 -.393E-01
   0.741E-14 0.688E+02 -.688E+02   -.557E-14 -.681E+02 0.681E+02   0.000E+00 -.635E+00 0.635E+00   -.402E-15 -.393E-01 0.393E-01
   -.473E-13 -.296E+02 0.296E+02   -.246E-13 0.293E+02 -.293E+02   0.000E+00 0.370E+00 -.370E+00   -.681E-14 0.173E-01 -.173E-01
   -.407E-13 0.296E+02 -.296E+02   0.249E-14 -.293E+02 0.293E+02   0.000E+00 -.370E+00 0.370E+00   -.145E-13 -.173E-01 0.173E-01
   -.291E-12 -.269E-12 0.573E-11   0.211E-13 0.236E-11 0.236E-11   0.000E+00 -.678E-19 0.000E+00   -.446E-13 -.277E-12 -.226E-12
   0.540E-14 0.349E-12 0.341E-12   -.124E-13 0.209E-11 0.199E-11   0.000E+00 -.271E-19 0.000E+00   0.641E-14 -.194E-12 -.959E-13
   0.895E-14 -.242E+02 0.242E+02   0.187E-13 0.246E+02 -.246E+02   0.000E+00 -.491E+00 0.491E+00   -.124E-14 0.203E-01 -.203E-01
   0.312E-14 0.242E+02 -.242E+02   -.999E-14 -.246E+02 0.246E+02   0.000E+00 0.491E+00 -.491E+00   0.264E-14 -.203E-01 0.203E-01
   -.125E-12 0.571E+02 -.864E+01   -.416E-14 -.522E+02 0.817E+01   0.867E-18 -.487E+01 0.446E+00   -.221E-13 -.840E-01 0.186E-01
   -.119E-12 -.571E+02 0.864E+01   -.116E-13 0.522E+02 -.817E+01   -.867E-18 0.487E+01 -.446E+00   -.293E-13 0.840E-01 -.186E-01
   -.117E-12 0.337E-11 0.856E-12   -.757E-14 0.225E-11 -.382E-11   0.000E+00 0.813E-19 0.000E+00   -.213E-13 0.796E-13 -.177E-13
   -.134E-12 -.864E+01 0.571E+02   -.186E-13 0.817E+01 -.522E+02   0.867E-18 0.446E+00 -.487E+01   -.205E-13 0.186E-01 -.840E-01
   -.122E-12 -.161E-12 -.187E-11   0.131E-14 -.365E-11 0.220E-11   0.000E+00 0.000E+00 0.108E-18   -.128E-13 0.138E-12 -.178E-12
   -.130E-12 0.864E+01 -.571E+02   0.580E-14 -.817E+01 0.522E+02   -.867E-18 -.446E+00 0.487E+01   -.546E-14 -.186E-01 0.840E-01
 -----------------------------------------------------------------------------------------------
   -.110E-11 0.341E-10 0.326E-10   -.142E-14 -.213E-13 -.711E-14   -.847E-21 0.000E+00 -.888E-15   -.160E-12 0.117E-13 -.160E-12
 
 
 POSITION                                       TOTAL-FORCE (eV/Angst)
 -----------------------------------------------------------------------------------
      0.00000      0.00000      0.00000         0.000000      0.000000     -0.000000
      0.00000      3.81523      0.06915         0.000000     -0.013798      0.013798
      0.00000      3.95305     -3.95305        -0.000000      0.013798     -0.013798
     -1.96734      1.94833     -1.94832         0.000000      0.031982     -0.031982
     -1.96734      5.81995     -1.93558         0.000000     -0.031982      0.031982
     -1.96734      1.94219      1.94219         0.000000      0.000000     -0.000000
      0.00000      1.94219      1.94219         0.000000     -0.000000     -0.000000
      0.00000      1.94649     -1.94649         0.000000     -0.063569      0.063569
      0.00000      5.82179     -1.93742        -0.000000      0.063569     -0.063569
     -1.96734      3.84366     -5.81672         0.000000     -0.058284     -0.000671
     -1.96734      3.92462      1.93282         0.000000      0.058284      0.000671
     -1.96734      3.88414     -1.94195         0.000000      0.000000     -0.000000
     -1.96734      1.95156     -0.04024         0.000000     -0.000671     -0.058284
     -1.96734      1.94195     -3.88414         0.000000      0.000000     -0.000000
     -1.96734      5.81672     -3.84366         0.000000      0.000671      0.058284
 -----------------------------------------------------------------------------------
    total drift:                               -0.000000      0.000000      0.000000


--------------------------------------------------------------------------------------------------------



  FREE ENERGIE OF THE ION-ELECTRON SYSTEM (eV)
  ---------------------------------------------------
  free  energy   TOTEN  =      -113.27330662 eV

  energy  without entropy=     -113.27330662  energy(sigma->0) =     -113.27330662
 


--------------------------------------------------------------------------------------------------------


    POTLOK:  cpu time    0.0470: real time    0.0471


--------------------------------------------------------------------------------------------------------


     LOOP+:  cpu time   27.1902: real time   27.3280
    4ORBIT:  cpu time    0.0000: real time    0.0000
 


 total charge     
 
# of ion       s       p       d       f       tot
--------------------------------------------------
    1        1.998   5.696   0.478   0.185   8.357
    2        1.998   5.698   0.485   0.188   8.368
    3        1.998   5.698   0.485   0.187   8.368
    4        0.331   0.512   4.866   0.000   5.709
    5        0.331   0.512   4.865   0.000   5.708
    6        0.392   0.559   8.318   0.000   9.270
    7        1.555   3.455   0.000   0.000   5.010
    8        1.566   3.457   0.000   0.000   5.023
    9        1.566   3.457   0.000   0.000   5.022
   10        1.562   3.458   0.000   0.000   5.020
   11        1.562   3.458   0.000   0.000   5.020
   12        1.562   3.468   0.000   0.000   5.030
   13        1.561   3.460   0.000   0.000   5.021
   14        1.561   3.471   0.000   0.000   5.032
   15        1.561   3.460   0.000   0.000   5.021
--------------------------------------------------
tot         21.104  49.820  19.496   0.560  90.979

 


 magnetization (x)
 
# of ion       s       p       d       f       tot
--------------------------------------------------
    1       -0.000   0.001   0.007   0.003   0.010
    2       -0.000   0.001   0.008   0.004   0.013
    3       -0.000   0.001   0.009   0.003   0.013
    4        0.024   0.029   3.551   0.000   3.604
    5        0.024   0.029   3.550   0.000   3.603
    6        0.012   0.001   1.687   0.000   1.700
    7        0.006   0.021   0.000   0.000   0.028
    8        0.008  -0.028   0.000   0.000  -0.020
    9        0.008  -0.028   0.000   0.000  -0.021
   10        0.005  -0.025   0.000   0.000  -0.020
   11        0.005  -0.025   0.000   0.000  -0.019
   12        0.002  -0.018   0.000   0.000  -0.016
   13        0.005  -0.021   0.000   0.000  -0.016
   14        0.002  -0.015   0.000   0.000  -0.014
   15        0.005  -0.021   0.000   0.000  -0.016
--------------------------------------------------
tot          0.106  -0.099   8.812   0.011   8.830

 
 BZINTS: Fermi energy:  8.105355;111.000000 electrons
         Band energy:-186.925631;  BLOECHL correction: -0.061766

 total amount of memory used by VASP MPI-rank0    48807. kBytes
=======================================================================

   base      :      30000. kBytes
   nonlr-proj:       3700. kBytes
   fftplans  :       1471. kBytes
   grid      :       4144. kBytes
   one-center:        196. kBytes
   wavefun   :       9296. kBytes
 
  
  
 General timing and accounting informations for this job:
 ========================================================
  
                  Total CPU time used (sec):       31.614
                            User time (sec):       30.175
                          System time (sec):        1.438
                         Elapsed time (sec):       31.859
  
                   Maximum memory used (kb):       78756.
                   Average memory used (kb):           0.
  
                          Minor page faults:        25958
                          Major page faults:            0
                 Voluntary context switches:         1195
