       N       E                     dE             d eps       ncg     rms          rms(c)
DAV:   1     0.358740110573E+04    0.35874E+04   -0.78365E+04  4968   0.245E+03
DAV:   2     0.124704776321E+04   -0.23404E+04   -0.21065E+04  5192   0.637E+02
DAV:   3     0.270012987278E+03   -0.97703E+03   -0.87418E+03  5208   0.329E+02
DAV:   4    -0.159417870032E+03   -0.42943E+03   -0.40441E+03  7480   0.181E+02
DAV:   5    -0.249607916751E+03   -0.90190E+02   -0.86844E+02  8550   0.980E+01    0.751E+01
RMM:   6    -0.224420162794E+03    0.25188E+02   -0.72679E+02  7829   0.108E+02    0.100E+02
RMM:   7    -0.223948226563E+03    0.47194E+00   -0.15061E+02  8175   0.366E+01    0.408E+01
RMM:   8    -0.218039997303E+03    0.59082E+01   -0.46865E+01  6323   0.352E+01    0.189E+01
RMM:   9    -0.220522151333E+03   -0.24822E+01   -0.27368E+01  7712   0.160E+01    0.150E+01
RMM:  10    -0.220713266869E+03   -0.19112E+00   -0.56486E+00  8574   0.577E+00    0.762E+00
RMM:  11    -0.220605922658E+03    0.10734E+00   -0.26893E+00  7940   0.574E+00    0.435E+00
RMM:  12    -0.220683611920E+03   -0.77689E-01   -0.93212E-01  8329   0.294E+00    0.200E+00
RMM:  13    -0.220706415316E+03   -0.22803E-01   -0.39746E-01  8282   0.184E+00    0.191E+00
RMM:  14    -0.220725194747E+03   -0.18779E-01   -0.18541E-01  8090   0.117E+00    0.951E-01
RMM:  15    -0.220734361223E+03   -0.91665E-02   -0.82871E-02  7582   0.720E-01    0.643E-01
RMM:  16    -0.220737437397E+03   -0.30762E-02   -0.40748E-02  6481   0.519E-01    0.382E-01
RMM:  17    -0.220739693819E+03   -0.22564E-02   -0.24845E-02  6134   0.472E-01    0.112E-01
RMM:  18    -0.220741058820E+03   -0.13650E-02   -0.14756E-02  5070   0.365E-01    0.101E-01
RMM:  19    -0.220741852740E+03   -0.79392E-03   -0.89438E-03  4758   0.322E-01
   1 F= -.22074185E+03 E0= -.22074185E+03  d E =0.000000E+00  mag=    15.0010
