       N       E                     dE             d eps       ncg     rms          rms(c)
DAV:   1     0.356639538416E+04    0.35664E+04   -0.77526E+04 11752   0.244E+03
DAV:   2     0.124515005543E+04   -0.23212E+04   -0.20929E+04 12216   0.638E+02
DAV:   3     0.269733743309E+03   -0.97542E+03   -0.87973E+03 12664   0.332E+02
DAV:   4    -0.161187118367E+03   -0.43092E+03   -0.40633E+03 17536   0.184E+02
DAV:   5    -0.255007257329E+03   -0.93820E+02   -0.90360E+02 19960   0.975E+01    0.713E+01
RMM:   6    -0.229213754783E+03    0.25794E+02   -0.74810E+02 18120   0.109E+02    0.107E+02
RMM:   7    -0.229157964668E+03    0.55790E-01   -0.15366E+02 19361   0.379E+01    0.450E+01
RMM:   8    -0.222476111360E+03    0.66819E+01   -0.63647E+01 14036   0.411E+01    0.250E+01
RMM:   9    -0.225880436723E+03   -0.34043E+01   -0.39355E+01 18216   0.160E+01    0.153E+01
RMM:  10    -0.226410292854E+03   -0.52986E+00   -0.96724E+00 19474   0.776E+00    0.751E+00
RMM:  11    -0.226388396273E+03    0.21897E-01   -0.42584E+00 19140   0.586E+00    0.421E+00
RMM:  12    -0.226490976386E+03   -0.10258E+00   -0.15602E+00 20163   0.255E+00    0.242E+00
RMM:  13    -0.226526777496E+03   -0.35801E-01   -0.48476E-01 19555   0.172E+00    0.174E+00
RMM:  14    -0.226553878575E+03   -0.27101E-01   -0.23022E-01 19395   0.106E+00    0.732E-01
RMM:  15    -0.226558754687E+03   -0.48761E-02   -0.88902E-02 16686   0.733E-01    0.592E-01
RMM:  16    -0.226564220316E+03   -0.54656E-02   -0.59119E-02 15942   0.523E-01    0.259E-01
RMM:  17    -0.226566596359E+03   -0.23760E-02   -0.25484E-02 12576   0.422E-01    0.143E-01
RMM:  18    -0.226568305192E+03   -0.17088E-02   -0.18130E-02 11661   0.351E-01    0.870E-02
RMM:  19    -0.226569178543E+03   -0.87335E-03   -0.97546E-03 11325   0.339E-01
   1 F= -.22656918E+03 E0= -.22656918E+03  d E =0.000000E+00  mag=    18.0003
