       N       E                     dE             d eps       ncg     rms          rms(c)
DAV:   1     0.358303690152E+04    0.35830E+04   -0.78600E+04  7460   0.245E+03
DAV:   2     0.125234811383E+04   -0.23307E+04   -0.20985E+04  7752   0.635E+02
DAV:   3     0.276593886217E+03   -0.97575E+03   -0.87238E+03  7808   0.328E+02
DAV:   4    -0.156502716344E+03   -0.43310E+03   -0.40753E+03 11170   0.181E+02
DAV:   5    -0.249464270313E+03   -0.92962E+02   -0.89519E+02 12794   0.990E+01    0.761E+01
RMM:   6    -0.222952329415E+03    0.26512E+02   -0.70733E+02 11630   0.105E+02    0.101E+02
RMM:   7    -0.224305719022E+03   -0.13534E+01   -0.14443E+02 12467   0.343E+01    0.465E+01
RMM:   8    -0.217365236427E+03    0.69405E+01   -0.67297E+01  9163   0.414E+01    0.268E+01
RMM:   9    -0.220174373630E+03   -0.28091E+01   -0.31661E+01 11501   0.161E+01    0.181E+01
RMM:  10    -0.220283975941E+03   -0.10960E+00   -0.61709E+00 11945   0.872E+00    0.142E+01
RMM:  11    -0.220276722424E+03    0.72535E-02   -0.30244E+00 12539   0.511E+00    0.624E+00
RMM:  12    -0.220258815434E+03    0.17907E-01   -0.17510E+00 12523   0.372E+00    0.457E+00
RMM:  13    -0.220310329715E+03   -0.51514E-01   -0.67552E-01 12500   0.198E+00    0.287E+00
RMM:  14    -0.220335804105E+03   -0.25474E-01   -0.21924E-01 12061   0.138E+00    0.172E+00
RMM:  15    -0.220342574081E+03   -0.67700E-02   -0.95531E-02 11410   0.779E-01    0.856E-01
RMM:  16    -0.220342119026E+03    0.45505E-03   -0.44697E-02 10538   0.610E-01    0.617E-01
RMM:  17    -0.220343994458E+03   -0.18754E-02   -0.33981E-02 10232   0.497E-01    0.208E-01
RMM:  18    -0.220344936606E+03   -0.94215E-03   -0.12217E-02  7464   0.366E-01    0.146E-01
RMM:  19    -0.220345423056E+03   -0.48645E-03   -0.66172E-03  6876   0.309E-01
   1 F= -.22034542E+03 E0= -.22034542E+03  d E =0.000000E+00  mag=    14.9950
