 vasp.5.4.4.18Apr17-6-g9f103f2a35 (build Oct 03 2018 13:58:34) complex          
  
 executed on             LinuxIFC date 2019.06.04  01:04:41
 running on   40 total cores
 distrk:  each k-point on   20 cores,    2 groups
 distr:  one band on NCORES_PER_BAND=  10 cores,    2 groups


--------------------------------------------------------------------------------------------------------


 INCAR:
 POTCAR:    PAW_PBE La 06Sep2000                  
 POTCAR:    PAW_PBE Mn 06Sep2000                  
 POTCAR:    PAW_PBE Ni 02Aug2007                  
 POTCAR:    PAW_PBE O 08Apr2002                   

 ----------------------------------------------------------------------------- 
|                                                                             |
|           W    W    AA    RRRRR   N    N  II  N    N   GGGG   !!!           |
|           W    W   A  A   R    R  NN   N  II  NN   N  G    G  !!!           |
|           W    W  A    A  R    R  N N  N  II  N N  N  G       !!!           |
|           W WW W  AAAAAA  RRRRR   N  N N  II  N  N N  G  GGG   !            |
|           WW  WW  A    A  R   R   N   NN  II  N   NN  G    G                |
|           W    W  A    A  R    R  N    N  II  N    N   GGGG   !!!           |
|                                                                             |
|      You have enabled k-point parallelism (KPAR>1).                         |
|      This developmental code was originally  written by Paul Kent at ORNL,  |
|      and carefully double checked in Vienna.                                |
|      GW as well as linear response parallelism added by Martijn Marsman     |
|      and Georg Kresse.                                                      |
|      Carefully verify results versus KPAR=1.                                |
|      Report problems to Paul Kent and Vienna.                               |
|                                                                             |
 ----------------------------------------------------------------------------- 

 POTCAR:    PAW_PBE La 06Sep2000                  
   VRHFIN =La : [core=Kr4d]                                                     
   LEXCH  = PE                                                                  
   EATOM  =   865.9763 eV,   63.6475 Ry                                         
                                                                                
   TITEL  = PAW_PBE La 06Sep2000                                                
   LULTRA =        F    use ultrasoft PP ?                                      
   IUNSCR =        1    unscreen: 0-lin 1-nonlin 2-no                           
   RPACOR =    2.300    partial core radius                                     
   POMASS =  138.900; ZVAL   =   11.000    mass and valenz                      
   RCORE  =    2.800    outmost cutoff radius                                   
   RWIGS  =    2.900; RWIGS  =    1.535    wigner-seitz radius (au A)           
   ENMAX  =  219.292; ENMIN  =  164.469 eV                                      
   RCLOC  =    1.601    cutoff for local pot                                    
   LCOR   =        T    correct aug charges                                     
   LPAW   =        T    paw PP                                                  
   EAUG   =  583.575                                                            
   DEXC   =    0.000                                                            
   RMAX   =    2.853    core radius for proj-oper                               
   RAUG   =    1.300    factor for augmentation sphere                          
   RDEP   =    2.802    radius for radial grids                                 
   RDEPT  =    2.156    core radius for aug-charge                              
                                                                                
   Atomic configuration                                                         
   14 entries                                                                   
     n  l   j            E        occ.                                          
     1  0  0.50    -38741.0879   2.0000                                         
     2  0  0.50     -6166.6801   2.0000                                         
     2  1  1.50     -5526.1593   6.0000                                         
     3  0  0.50     -1319.0200   2.0000                                         
     3  1  1.50     -1114.5963   6.0000                                         
     3  2  2.50      -821.1793  10.0000                                         
     4  0  0.50      -266.3851   2.0000                                         
     4  1  1.50      -199.9276   6.0000                                         
     4  2  2.50      -103.8239  10.0000                                         
     5  0  0.50       -38.9172   2.0000                                         
     6  0  0.50        -3.6792   2.0000                                         
     5  1  1.50       -22.3948   6.0000                                         
     5  2  2.50        -3.0911   0.9999                                         
     4  3  2.50        -4.3603   0.0001                                         
   Description                                                                  
     l       E           TYP  RCUT    TYP  RCUT                                 
     0    -38.9171645     23  2.800                                             
     0     -3.6792381     23  2.800                                             
     1    -22.3948300     23  2.500                                             
     1     27.2116520     23  2.500                                             
     2     -3.0910934     23  2.500                                             
     2      1.0119135     23  2.500                                             
     3     -4.3602911     23  2.800                                             
     3     -5.7208737     23  2.800                                             
  local pseudopotential read in
  partial core-charges read in
  partial kinetic energy density read in
  atomic valenz-charges read in
  non local Contribution for L=           0  read in
    real space projection operators read in
  non local Contribution for L=           0  read in
    real space projection operators read in
  non local Contribution for L=           1  read in
    real space projection operators read in
  non local Contribution for L=           1  read in
    real space projection operators read in
  non local Contribution for L=           2  read in
    real space projection operators read in
  non local Contribution for L=           2  read in
    real space projection operators read in
  non local Contribution for L=           3  read in
    real space projection operators read in
  non local Contribution for L=           3  read in
    real space projection operators read in
    PAW grid and wavefunctions read in
 
   number of l-projection  operators is LMAX  =           8
   number of lm-projection operators is LMMAX =          32
 
 POTCAR:    PAW_PBE Mn 06Sep2000                  
   VRHFIN =Mn: d6 s1                                                            
   LEXCH  = PE                                                                  
   EATOM  =   416.7541 eV,   30.6306 Ry                                         
                                                                                
   TITEL  = PAW_PBE Mn 06Sep2000                                                
   LULTRA =        F    use ultrasoft PP ?                                      
   IUNSCR =        1    unscreen: 0-lin 1-nonlin 2-no                           
   RPACOR =    2.000    partial core radius                                     
   POMASS =   54.938; ZVAL   =    7.000    mass and valenz                      
   RCORE  =    2.300    outmost cutoff radius                                   
   RWIGS  =    2.500; RWIGS  =    1.323    wigner-seitz radius (au A)           
   ENMAX  =  269.864; ENMIN  =  202.398 eV                                      
   RCLOC  =    1.725    cutoff for local pot                                    
   LCOR   =        T    correct aug charges                                     
   LPAW   =        T    paw PP                                                  
   EAUG   =  500.711                                                            
   DEXC   =    0.000                                                            
   RMAX   =    2.343    core radius for proj-oper                               
   RAUG   =    1.300    factor for augmentation sphere                          
   RDEP   =    2.338    radius for radial grids                                 
   RDEPT  =    1.911    core radius for aug-charge                              
                                                                                
   Atomic configuration                                                         
    9 entries                                                                   
     n  l   j            E        occ.                                          
     1  0  0.50     -6424.8288   2.0000                                         
     2  0  0.50      -739.1154   2.0000                                         
     2  1  1.50      -625.3949   6.0000                                         
     3  0  0.50       -81.6100   2.0000                                         
     3  1  1.50       -50.4667   6.0000                                         
     3  2  2.50        -3.3745   6.0000                                         
     4  0  0.50        -4.1331   1.0000                                         
     4  1  0.50        -4.0817   0.0000                                         
     4  3  2.50        -1.3606   0.0000                                         
   Description                                                                  
     l       E           TYP  RCUT    TYP  RCUT                                 
     2     -3.3744664     23  2.300                                             
     2     -4.7350490     23  2.300                                             
     0     -4.1331408     23  2.300                                             
     0      7.6656614     23  2.300                                             
     1     -2.7211652     23  2.300                                             
     1     20.4087390     23  2.300                                             
  local pseudopotential read in
  partial core-charges read in
  partial kinetic energy density read in
  atomic valenz-charges read in
  non local Contribution for L=           2  read in
    real space projection operators read in
  non local Contribution for L=           2  read in
    real space projection operators read in
  non local Contribution for L=           0  read in
    real space projection operators read in
  non local Contribution for L=           0  read in
    real space projection operators read in
  non local Contribution for L=           1  read in
    real space projection operators read in
  non local Contribution for L=           1  read in
    real space projection operators read in
    PAW grid and wavefunctions read in
 
   number of l-projection  operators is LMAX  =           6
   number of lm-projection operators is LMMAX =          18
 
 POTCAR:    PAW_PBE Ni 02Aug2007                  
   VRHFIN =Ni:                                                                  
   LEXCH  = PE                                                                  
   EATOM  =  1077.6739 eV,   79.2068 Ry                                         
                                                                                
   TITEL  = PAW_PBE Ni 02Aug2007                                                
   LULTRA =        F    use ultrasoft PP ?                                      
   IUNSCR =        1    unscreen: 0-lin 1-nonlin 2-no                           
   RPACOR =    2.000    partial core radius                                     
   POMASS =   58.690; ZVAL   =   10.000    mass and valenz                      
   RCORE  =    2.300    outmost cutoff radius                                   
   RWIGS  =    2.430; RWIGS  =    1.286    wigner-seitz radius (au A)           
   ENMAX  =  269.532; ENMIN  =  202.149 eV                                      
   RCLOC  =    1.201    cutoff for local pot                                    
   LCOR   =        T    correct aug charges                                     
   LPAW   =        T    paw PP                                                  
   EAUG   =  544.565                                                            
   DEXC   =    0.000                                                            
   RMAX   =    2.357    core radius for proj-oper                               
   RAUG   =    1.300    factor for augmentation sphere                          
   RDEP   =    2.390    radius for radial grids                                 
   RDEPT  =    1.838    core radius for aug-charge                              
                                                                                
   Atomic configuration                                                         
    9 entries                                                                   
     n  l   j            E        occ.                                          
     1  0  0.50     -8206.4253   2.0000                                         
     2  0  0.50      -976.1748   2.0000                                         
     2  1  1.50      -839.0571   6.0000                                         
     3  0  0.50      -105.9991   2.0000                                         
     3  1  1.50       -66.4603   6.0000                                         
     3  2  2.50        -4.6458   9.0000                                         
     4  0  0.50        -4.4926   1.0000                                         
     4  1  1.50        -4.0817   0.0000                                         
     4  3  2.50        -1.3606   0.0000                                         
   Description                                                                  
     l       E           TYP  RCUT    TYP  RCUT                                 
     2     -4.6457903     23  2.300                                             
     2     -6.0063729     23  2.300                                             
     0     -4.4925590     23  2.300                                             
     0      5.0102601     23  2.300                                             
     1     -2.7211652     23  2.300                                             
     1     16.5183231     23  2.300                                             
  local pseudopotential read in
  partial core-charges read in
  partial kinetic energy density read in
  atomic valenz-charges read in
  non local Contribution for L=           2  read in
    real space projection operators read in
  non local Contribution for L=           2  read in
    real space projection operators read in
  non local Contribution for L=           0  read in
    real space projection operators read in
  non local Contribution for L=           0  read in
    real space projection operators read in
  non local Contribution for L=           1  read in
    real space projection operators read in
  non local Contribution for L=           1  read in
    real space projection operators read in
    PAW grid and wavefunctions read in
 
   number of l-projection  operators is LMAX  =           6
   number of lm-projection operators is LMMAX =          18
 
 POTCAR:    PAW_PBE O 08Apr2002                   
   VRHFIN =O: s2p4                                                              
   LEXCH  = PE                                                                  
   EATOM  =   432.3788 eV,   31.7789 Ry                                         
                                                                                
   TITEL  = PAW_PBE O 08Apr2002                                                 
   LULTRA =        F    use ultrasoft PP ?                                      
   IUNSCR =        1    unscreen: 0-lin 1-nonlin 2-no                           
   RPACOR =    1.200    partial core radius                                     
   POMASS =   16.000; ZVAL   =    6.000    mass and valenz                      
   RCORE  =    1.520    outmost cutoff radius                                   
   RWIGS  =    1.550; RWIGS  =    0.820    wigner-seitz radius (au A)           
   ENMAX  =  400.000; ENMIN  =  300.000 eV                                      
   ICORE  =        2    local potential                                         
   LCOR   =        T    correct aug charges                                     
   LPAW   =        T    paw PP                                                  
   EAUG   =  605.392                                                            
   DEXC   =    0.000                                                            
   RMAX   =    1.553    core radius for proj-oper                               
   RAUG   =    1.300    factor for augmentation sphere                          
   RDEP   =    1.550    radius for radial grids                                 
   RDEPT  =    1.329    core radius for aug-charge                              
                                                                                
   Atomic configuration                                                         
    4 entries                                                                   
     n  l   j            E        occ.                                          
     1  0  0.50      -514.6923   2.0000                                         
     2  0  0.50       -23.9615   2.0000                                         
     2  1  0.50        -9.0305   4.0000                                         
     3  2  1.50        -9.5241   0.0000                                         
   Description                                                                  
     l       E           TYP  RCUT    TYP  RCUT                                 
     0    -23.9615318     23  1.200                                             
     0     -9.5240782     23  1.200                                             
     1     -9.0304911     23  1.520                                             
     1      8.1634956     23  1.520                                             
     2     -9.5240782      7  1.500                                             
  local pseudopotential read in
  partial core-charges read in
  partial kinetic energy density read in
  kinetic energy density of atom read in
  atomic valenz-charges read in
  non local Contribution for L=           0  read in
    real space projection operators read in
  non local Contribution for L=           0  read in
    real space projection operators read in
  non local Contribution for L=           1  read in
    real space projection operators read in
  non local Contribution for L=           1  read in
    real space projection operators read in
    PAW grid and wavefunctions read in
 
   number of l-projection  operators is LMAX  =           4
   number of lm-projection operators is LMMAX =           8
 
 Optimization of the real space projectors (new method)

 maximal supplied QI-value         = 13.42
 optimisation between [QCUT,QGAM] = [ 11.67, 23.35] = [ 38.16,152.62] Ry 
 Optimized for a Real-space Cutoff    1.63 Angstroem

   l    n(q)    QCUT    max X(q) W(low)/X(q) W(high)/X(q)  e(spline) 
   0     11    11.673    13.882    0.27E-04    0.79E-05    0.11E-06
   0     11    11.673    12.184    0.39E-04    0.13E-04    0.19E-06
   1     11    11.673     4.523    0.73E-05    0.76E-05    0.12E-06
   1     11    11.673     4.424    0.87E-05    0.13E-04    0.19E-06
   2     10    11.673    52.481    0.65E-04    0.36E-04    0.18E-06
   2     10    11.673    38.501    0.61E-04    0.33E-04    0.17E-06
   3     10    11.673    65.631    0.17E-03    0.14E-03    0.37E-06
   3     10    11.673    56.854    0.17E-03    0.14E-03    0.37E-06
 Optimization of the real space projectors (new method)

 maximal supplied QI-value         = 16.25
 optimisation between [QCUT,QGAM] = [ 11.54, 23.24] = [ 37.28,151.24] Ry 
 Optimized for a Real-space Cutoff    1.53 Angstroem

   l    n(q)    QCUT    max X(q) W(low)/X(q) W(high)/X(q)  e(spline) 
   2     10    11.539   110.144    0.12E-03    0.13E-03    0.25E-06
   2     10    11.539   103.200    0.12E-03    0.13E-03    0.25E-06
   0     11    11.539    68.437    0.46E-04    0.21E-04    0.32E-06
   0     11    11.539    33.971    0.37E-04    0.19E-04    0.29E-06
   1     10    11.539    17.065    0.51E-04    0.22E-04    0.13E-06
   1     10    11.539    12.540    0.41E-04    0.18E-04    0.11E-06
 Optimization of the real space projectors (new method)

 maximal supplied QI-value         = 16.25
 optimisation between [QCUT,QGAM] = [ 11.54, 23.24] = [ 37.28,151.24] Ry 
 Optimized for a Real-space Cutoff    1.45 Angstroem

   l    n(q)    QCUT    max X(q) W(low)/X(q) W(high)/X(q)  e(spline) 
   2      9    11.539    60.317    0.19E-03    0.47E-04    0.16E-06
   2      9    11.539    55.921    0.19E-03    0.48E-04    0.16E-06
   0     10    11.539    51.690    0.80E-04    0.50E-04    0.24E-06
   0     10    11.539    30.015    0.73E-04    0.45E-04    0.22E-06
   1     10    11.539    18.849    0.87E-04    0.16E-03    0.71E-07
   1     10    11.539    14.624    0.73E-04    0.13E-03    0.64E-07
 Optimization of the real space projectors (new method)

 maximal supplied QI-value         = 24.76
 optimisation between [QCUT,QGAM] = [ 11.64, 23.27] = [ 37.91,151.63] Ry 
 Optimized for a Real-space Cutoff    1.14 Angstroem

   l    n(q)    QCUT    max X(q) W(low)/X(q) W(high)/X(q)  e(spline) 
   0      8    11.635    20.381    0.10E-03    0.33E-03    0.24E-06
   0      8    11.635    15.268    0.11E-03    0.35E-03    0.26E-06
   1      7    11.635     5.964    0.24E-03    0.31E-03    0.30E-06
   1      7    11.635     5.382    0.22E-03    0.25E-03    0.26E-06
  PAW_PBE La 06Sep2000                  :
 energy of atom  1       EATOM= -865.9763
 kinetic energy error for atom=    0.0009 (will be added to EATOM!!)
  PAW_PBE Mn 06Sep2000                  :
 energy of atom  2       EATOM= -416.7541
 kinetic energy error for atom=    0.0024 (will be added to EATOM!!)
  PAW_PBE Ni 02Aug2007                  :
 energy of atom  3       EATOM=-1077.6739
 kinetic energy error for atom=    0.0030 (will be added to EATOM!!)
  PAW_PBE O 08Apr2002                   :
 energy of atom  4       EATOM= -432.3788
 kinetic energy error for atom=    0.0208 (will be added to EATOM!!)
 
 
 POSCAR: SCEL6_1_2_3_1_0_0/4                     
  positions in direct lattice
  velocities in cartesian coordinates
 exchange correlation table for  LEXCH =        8
   RHO(1)=    0.500       N(1)  =     2000
   RHO(2)=  100.500       N(2)  =     4000
 


--------------------------------------------------------------------------------------------------------


 ion  position               nearest neighbor table
   1  0.000  0.173  0.327-  30 2.66  17 2.70  17 2.70  24 2.71  24 2.71  27 2.77  29 2.77  14 2.80
                            14 2.80  23 2.82  23 2.82  12 3.29  12 3.29  10 3.36  10 3.36  11 3.37
   2  0.000  0.336  0.660-  29 2.64  23 2.67  23 2.67  26 2.70  16 2.71  16 2.71  28 2.75  13 2.78
                            13 2.78  22 2.79  22 2.79  25 2.83  11 3.29  11 3.29   7 3.35   7 3.35
   3  0.000  0.508  0.013-  27 2.62  21 2.63  21 2.63  30 2.64  15 2.75  15 2.75  18 2.76  18 2.76
                            12 3.28  12 3.28  10 3.28  10 3.28   4 3.67
   4  0.000  0.655  0.327-  30 2.66  17 2.70  17 2.70  21 2.71  21 2.71  27 2.77  29 2.77  14 2.80
                            14 2.80  20 2.82  20 2.82  12 3.29  12 3.29  10 3.36  10 3.36  11 3.37
   5  0.000  0.824  0.660-  29 2.64  20 2.67  20 2.67  26 2.70  16 2.71  16 2.71  28 2.75  13 2.78
                            13 2.78  19 2.79  19 2.79  25 2.83  11 3.29  11 3.29   7 3.35   7 3.35
   6  0.000  0.005  0.013-  27 2.62  24 2.63  24 2.63  30 2.64  15 2.75  15 2.75  18 2.76  18 2.76
                            12 3.28  12 3.28  10 3.28  10 3.28   1 3.67
   7  0.500  1.000  0.499-  14 1.87  23 1.89  20 1.89  26 1.94  26 1.94  13 1.96   2 3.35   2 3.35
                             5 3.35   5 3.35
   8  0.500  0.167  0.834-  18 1.88  25 1.94  25 1.94  13 1.94  19 1.94  22 1.94
   9  0.500  0.667  0.834-  15 1.87  16 1.92  28 1.94  28 1.94  22 1.94  19 1.94   5 3.39   5 3.39
                             2 3.39   2 3.39
  10  0.500  0.834  0.168-  27 1.94  27 1.94  21 1.94  24 1.94  14 1.99  15 2.01   3 3.28   3 3.28
                             6 3.28   6 3.28   4 3.36   4 3.36   1 3.36   1 3.36
  11  0.500  0.500  0.500-  17 1.94  29 1.94  29 1.94  16 1.98  20 1.99  23 1.99   5 3.29   5 3.29
                             2 3.29   2 3.29   1 3.37   1 3.37   4 3.37   4 3.37
  12  0.500  0.333  0.166-  30 1.94  30 1.94  24 1.95  21 1.95  17 1.96  18 1.99   6 3.28   6 3.28
                             3 3.28   3 3.28   1 3.29   1 3.29   4 3.29   4 3.29
  13  0.500  0.084  0.667-   8 1.94   7 1.96   5 2.78   5 2.78   2 2.78   2 2.78
  14  0.500  0.919  0.338-   7 1.87  10 1.99   4 2.80   4 2.80   1 2.80   1 2.80
  15  0.500  0.748  0.995-   9 1.87  10 2.01   6 2.75   6 2.75   3 2.75   3 2.75
  16  0.500  0.585  0.670-   9 1.92  11 1.98   2 2.71   2 2.71   5 2.71   5 2.71
  17  0.500  0.417  0.334-  11 1.94  12 1.96   1 2.70   1 2.70   4 2.70   4 2.70
  18  0.500  0.248  0.995-   8 1.88  12 1.99   3 2.76   3 2.76   6 2.76   6 2.76
  19  0.500  0.916  0.832-   9 1.94   8 1.94   5 2.79   5 2.79
  20  0.500  0.758  0.503-   7 1.89  11 1.99   5 2.67   5 2.67   4 2.82   4 2.82
  21  0.500  0.583  0.165-  10 1.94  12 1.95   3 2.63   3 2.63   4 2.71   4 2.71
  22  0.500  0.416  0.832-   9 1.94   8 1.94   2 2.79   2 2.79
  23  0.500  0.245  0.503-   7 1.89  11 1.99   2 2.67   2 2.67   1 2.82   1 2.82
  24  0.500  0.082  0.165-  10 1.94  12 1.95   6 2.63   6 2.63   1 2.71   1 2.71
  25  0.000  0.166  0.832-   8 1.94   8 1.94   2 2.83   5 2.83
  26  0.000  0.002  0.504-   7 1.94   7 1.94   2 2.70   5 2.70
  27  0.000  0.832  0.165-  10 1.94  10 1.94   3 2.62   6 2.62   4 2.77   1 2.77
  28  0.000  0.666  0.831-   9 1.94   9 1.94   5 2.75   2 2.75
  29  0.000  0.501  0.503-  11 1.94  11 1.94   5 2.64   2 2.64   1 2.77   4 2.77
  30  0.000  0.333  0.165-  12 1.94  12 1.94   6 2.64   3 2.64   1 2.66   4 2.66
 
  LATTYP: Found a base centered orthorhombic cell.
 ALAT       =     7.7741009209
 B/A-ratio  =     3.0011271697
 C/A-ratio  =     0.4985773589
  
  Lattice vectors:
  
 A1 = (   0.0000000000,   3.8870504556,  11.6655327469)
 A2 = (   0.0000000000,   3.8870504653, -11.6655327468)
 A3 = (  -3.8759907051,   0.0000000000,   0.0000000000)


Analysis of symmetry for initial positions (statically):
=====================================================================
 Subroutine PRICEL returns:
 Original cell was already a primitive cell.
 

 Routine SETGRP: Setting up the symmetry group for a 
 base centered orthorhombic supercell.


 Subroutine GETGRP returns: Found  4 space group operations
 (whereof  2 operations were pure point group operations)
 out of a pool of  8 trial point group operations.


The static configuration has the point symmetry C_1h.
 The point group associated with its full space group is C_2v.


Analysis of symmetry for dynamics (positions and initial velocities):
=====================================================================
 Subroutine PRICEL returns:
 Original cell was already a primitive cell.
 

 Routine SETGRP: Setting up the symmetry group for a 
 base centered orthorhombic supercell.


 Subroutine GETGRP returns: Found  4 space group operations
 (whereof  2 operations were pure point group operations)
 out of a pool of  8 trial point group operations.


The dynamic configuration has the point symmetry C_1h.
 The point group associated with its full space group is C_2v.


Analysis of structural, dynamic, and magnetic symmetry:
=====================================================================
 Subroutine PRICEL returns:
 Original cell was already a primitive cell.
 

 Routine SETGRP: Setting up the symmetry group for a 
 base centered orthorhombic supercell.


 Subroutine GETGRP returns: Found  4 space group operations
 (whereof  2 operations were pure point group operations)
 out of a pool of  8 trial point group operations.


The magnetic configuration has the point symmetry C_1h.
 The point group associated with its full space group is C_2v.


 Subroutine INISYM returns: Found  4 space group operations
 (whereof  2 operations are pure point group operations),
 and found     1 'primitive' translations

 
 
 KPOINTS: Automatic mesh                          

Automatic generation of k-mesh.
 generate k-points for:    5    3    2
Space group operators:
 irot       det(A)        alpha          n_x          n_y          n_z        tau_x        tau_y        tau_z
    1     1.000000     0.000000     1.000000     0.000000     0.000000     0.000000     0.000000     0.000000
    2    -1.000000   180.000000     1.000000     0.000000     0.000000     0.000000     0.000000     0.000000
    3     1.000000   180.000000     0.000000    -0.000000     1.000000     0.000000     0.500000    -0.000000
    4    -1.000000   179.999999     0.000000    -1.000000    -0.000000     0.000000     0.500000    -0.000000
 
 Subroutine IBZKPT returns following result:
 ===========================================
 
 Found     12 irreducible k-points:
 
 Following reciprocal coordinates:
            Coordinates               Weight
  0.000000  0.000000  0.000000      1.000000
  0.200000  0.000000  0.000000      2.000000
  0.400000  0.000000  0.000000      2.000000
  0.000000  0.333333  0.000000      2.000000
  0.200000  0.333333  0.000000      4.000000
  0.400000  0.333333  0.000000      4.000000
  0.000000 -0.000000  0.500000      1.000000
  0.200000 -0.000000  0.500000      2.000000
  0.400000 -0.000000  0.500000      2.000000
  0.000000  0.333333  0.500000      2.000000
  0.200000  0.333333  0.500000      4.000000
  0.400000  0.333333  0.500000      4.000000
 
 Following cartesian coordinates:
            Coordinates               Weight
  0.000000  0.000000  0.000000      1.000000
  0.051600  0.000000  0.000000      2.000000
  0.103199  0.000000  0.000000      2.000000
  0.000000  0.042877  0.014287      2.000000
  0.051600  0.042877  0.014287      4.000000
  0.103199  0.042877  0.014287      4.000000
  0.000000 -0.000000  0.042861      1.000000
  0.051600 -0.000000  0.042861      2.000000
  0.103199 -0.000000  0.042861      2.000000
  0.000000  0.042877  0.057148      2.000000
  0.051600  0.042877  0.057148      4.000000
  0.103199  0.042877  0.057148      4.000000
 
 TETIRR: Found     87 inequivalent tetrahedra from      180


--------------------------------------------------------------------------------------------------------




 Dimension of arrays:
   k-points           NKPTS =     12   k-points in BZ     NKDIM =     12   number of bands    NBANDS=    146
   number of dos      NEDOS =    301   number of ions     NIONS =     30
   non local maximal  LDIM  =      8   non local SUM 2l+1 LMDIM =     32
   total plane-waves  NPLWV = 172800
   max r-space proj   IRMAX =   8922   max aug-charges    IRDMAX=  25884
   dimension x,y,z NGX =    30 NGY =   60 NGZ =   96
   dimension x,y,z NGXF=    60 NGYF=  120 NGZF=  192
   support grid    NGXF=    60 NGYF=  120 NGZF=  192
   ions per type =               6   3   3  18
   NGX,Y,Z   is equivalent  to a cutoff of  12.87, 12.83, 12.98 a.u.
   NGXF,Y,Z  is equivalent  to a cutoff of  25.73, 25.66, 25.96 a.u.

 SYSTEM =  final                                   
 POSCAR =  SCEL6_1_2_3_1_0_0/4                     

 Startparameter for this run:
   NWRITE =      2    write-flag & timer
   PREC   = accura    normal or accurate (medium, high low for compatibility)
   ISTART =      0    job   : 0-new  1-cont  2-samecut
   ICHARG =      1    charge: 1-file 2-atom 10-const
   ISPIN  =      2    spin polarized calculation?
   LNONCOLLINEAR =      F non collinear calculations
   LSORBIT =      F    spin-orbit coupling
   INIWAV =      1    electr: 0-lowe 1-rand  2-diag
   LASPH  =      F    aspherical Exc in radial PAW
   METAGGA=      F    non-selfconsistent MetaGGA calc.

 Electronic Relaxation 1
   ENCUT  =  520.0 eV  38.22 Ry    6.18 a.u.   7.21 14.45 22.86*2*pi/ulx,y,z
   ENINI  =  520.0     initial cutoff
   ENAUG  =  605.4 eV  augmentation charge cutoff
   NELM   =    100;   NELMIN=  2; NELMDL= -5     # of ELM steps 
   EDIFF  = 0.1E-02   stopping-criterion for ELM
   LREAL  =      T    real-space projection
   NLSPLINE    = F    spline interpolate recip. space projectors
   LCOMPAT=      F    compatible to vasp.4.4
   GGA_COMPAT  = T    GGA compatible to vasp.4.4-vasp.4.6
   LMAXPAW     = -100 max onsite density
   LMAXMIX     =    6 max onsite mixed and CHGCAR
   VOSKOWN=      0    Vosko Wilk Nusair interpolation
   ROPT   =   -0.00025  -0.00025  -0.00025  -0.00025
 Ionic relaxation
   EDIFFG = 0.1E-01   stopping-criterion for IOM
   NSW    =      0    number of steps for IOM
   NBLOCK =      1;   KBLOCK =      1    inner block; outer block 
   IBRION =     -1    ionic relax: 0-MD 1-quasi-New 2-CG
   NFREE  =      0    steps in history (QN), initial steepest desc. (CG)
   ISIF   =      2    stress and relaxation
   IWAVPR =     10    prediction:  0-non 1-charg 2-wave 3-comb
   ISYM   =      2    0-nonsym 1-usesym 2-fastsym
   LCORR  =      T    Harris-Foulkes like correction to forces

   POTIM  = 0.5000    time-step for ionic-motion
   TEIN   =    0.0    initial temperature
   TEBEG  =    0.0;   TEEND  =   0.0 temperature during run
   SMASS  =  -3.00    Nose mass-parameter (am)
   estimated Nose-frequenzy (Omega)   =  0.10E-29 period in steps =****** mass=  -0.343E-27a.u.
   SCALEE = 1.0000    scale energy and forces
   NPACO  =    256;   APACO  = 16.0  distance and # of slots for P.C.
   PSTRESS=    0.0 pullay stress

  Mass of Ions in am
   POMASS = 138.90 54.94 58.69 16.00
  Ionic Valenz
   ZVAL   =  11.00  7.00 10.00  6.00
  Atomic Wigner-Seitz radii
   RWIGS  =  -1.00 -1.00 -1.00 -1.00
  virtual crystal weights 
   VCA    =   1.00  1.00  1.00  1.00
   NELECT =     225.0000    total number of electrons
   NUPDOWN=      -1.0000    fix difference up-down

 DOS related values:
   EMIN   =  10.00;   EMAX   =-10.00  energy-range for DOS
   EFERMI =   0.00
   ISMEAR =    -5;   SIGMA  =   0.05  broadening in eV -4-tet -1-fermi 0-gaus

 Electronic relaxation 2 (details)
   IALGO  =     68    algorithm
   LDIAG  =      T    sub-space diagonalisation (order eigenvalues)
   LSUBROT=      F    optimize rotation matrix (better conditioning)
   TURBO    =      0    0=normal 1=particle mesh
   IRESTART =      0    0=no restart 2=restart with 2 vectors
   NREBOOT  =      0    no. of reboots
   NMIN     =      0    reboot dimension
   EREF     =   0.00    reference energy to select bands
   IMIX   =      4    mixing-type and parameters
     AMIX     =   0.40;   BMIX     =  1.00
     AMIX_MAG =   1.60;   BMIX_MAG =  1.00
     AMIN     =   0.10
     WC   =   100.;   INIMIX=   1;  MIXPRE=   1;  MAXMIX= -45

 Intra band minimization:
   WEIMIN = 0.0000     energy-eigenvalue tresh-hold
   EBREAK =  0.17E-05  absolut break condition
   DEPER  =   0.30     relativ break condition  

   TIME   =   0.40     timestep for ELM

  volume/ion in A,a.u.               =      11.72        79.07
  Fermi-wavevector in a.u.,A,eV,Ry     =   1.410879  2.666175 27.083488  1.990580
  Thomas-Fermi vector in A             =   2.532788
 
 Write flags
   LWAVE        =      F    write WAVECAR
   LDOWNSAMPLE  =      F    k-point downsampling of WAVECAR
   LCHARG       =      T    write CHGCAR
   LVTOT        =      F    write LOCPOT, total local potential
   LVHAR        =      F    write LOCPOT, Hartree potential only
   LELF         =      F    write electronic localiz. function (ELF)
   LORBIT       =     11    0 simple, 1 ext, 2 COOP (PROOUT), +10 PAW based schemes


 Dipole corrections
   LMONO  =      F    monopole corrections only (constant potential shift)
   LDIPOL =      F    correct potential (dipole corrections)
   IDIPOL =      0    1-x, 2-y, 3-z, 4-all directions 
   EPSILON=  1.0000000 bulk dielectric constant

 LDA+U is selected, type is set to LDAUTYPE =  2
   angular momentum for each species LDAUL =     0    2    2    0
   U (eV)           for each species LDAUU =   0.0  3.9  6.2  0.0
   J (eV)           for each species LDAUJ =   0.0  0.0  0.0  0.0
 Exchange correlation treatment:
   GGA     =    --    GGA type
   LEXCH   =     8    internal setting for exchange type
   VOSKOWN=      0    Vosko Wilk Nusair interpolation
   LHFCALC =     F    Hartree Fock is set to
   LHFONE  =     F    Hartree Fock one center treatment
   AEXX    =    0.0000 exact exchange contribution

 Linear response parameters
   LEPSILON=     F    determine dielectric tensor
   LRPA    =     F    only Hartree local field effects (RPA)
   LNABLA  =     F    use nabla operator in PAW spheres
   LVEL    =     F    velocity operator in full k-point grid
   LINTERFAST=   F  fast interpolation
   KINTER  =     0    interpolate to denser k-point grid
   CSHIFT  =0.1000    complex shift for real part using Kramers Kronig
   OMEGAMAX=  -1.0    maximum frequency
   DEG_THRESHOLD= 0.2000000E-02 threshold for treating states as degnerate
   RTIME   =   -0.100 relaxation time in fs
  (WPLASMAI=    0.000 imaginary part of plasma frequency in eV, 0.658/RTIME)
   DFIELD  = 0.0000000 0.0000000 0.0000000 field for delta impulse in time
 
 Orbital magnetization related:
   ORBITALMAG=     F  switch on orbital magnetization
   LCHIMAG   =     F  perturbation theory with respect to B field
   DQ        =  0.001000  dq finite difference perturbation B field
   LLRAUG    =     F  two centre corrections for induced B field



--------------------------------------------------------------------------------------------------------


 Static calculation
 charge density and potential will be updated during run
 spin polarized calculation
 RMM-DIIS sequential band-by-band and
  variant of blocked Davidson during initial phase
 perform sub-space diagonalisation
    before iterative eigenvector-optimisation
 modified Broyden-mixing scheme, WC =      100.0
 initial mixing is a Kerker type mixing with AMIX =  0.4000 and BMIX =      1.0000
 Hartree-type preconditioning will be used
 using additional bands           33
 real space projection scheme for non local part
 use partial core corrections
 calculate Harris-corrections to forces 
   (improved forces if not selfconsistent)
 use gradient corrections 
 use of overlap-Matrix (Vanderbilt PP)
 Fermi weights with tetrahedron method with Bloechl corrections


--------------------------------------------------------------------------------------------------------


  energy-cutoff  :      520.00
  volume of cell :      351.51
      direct lattice vectors                 reciprocal lattice vectors
     3.875990705  0.000000000  0.000000000     0.257998555  0.000000000  0.000000000
     0.000000000  7.774100921  0.000000000     0.000000000  0.128632238  0.042861309
     0.000000000 -3.887050465 11.665532747     0.000000000 -0.000000000  0.085722617

  length of vectors
     3.875990705  7.774100921 12.296089443     0.257998555  0.135585193  0.085722617


 
 k-points in units of 2pi/SCALE and weight: Automatic mesh                          
   0.00000000  0.00000000  0.00000000       0.033
   0.05159971  0.00000000  0.00000000       0.067
   0.10319942  0.00000000  0.00000000       0.067
   0.00000000  0.04287741  0.01428710       0.067
   0.05159971  0.04287741  0.01428710       0.133
   0.10319942  0.04287741  0.01428710       0.133
   0.00000000 -0.00000000  0.04286131       0.033
   0.05159971 -0.00000000  0.04286131       0.067
   0.10319942 -0.00000000  0.04286131       0.067
   0.00000000  0.04287741  0.05714841       0.067
   0.05159971  0.04287741  0.05714841       0.133
   0.10319942  0.04287741  0.05714841       0.133
 
 k-points in reciprocal lattice and weights: Automatic mesh                          
   0.00000000  0.00000000  0.00000000       0.033
   0.20000000  0.00000000  0.00000000       0.067
   0.40000000  0.00000000  0.00000000       0.067
   0.00000000  0.33333333  0.00000000       0.067
   0.20000000  0.33333333  0.00000000       0.133
   0.40000000  0.33333333  0.00000000       0.133
   0.00000000 -0.00000000  0.50000000       0.033
   0.20000000 -0.00000000  0.50000000       0.067
   0.40000000 -0.00000000  0.50000000       0.067
   0.00000000  0.33333333  0.50000000       0.067
   0.20000000  0.33333333  0.50000000       0.133
   0.40000000  0.33333333  0.50000000       0.133
 
 position of ions in fractional coordinates (direct lattice) 
   0.00000000  0.17259579  0.32748974
   0.00000000  0.33621383  0.65998045
   0.00000000  0.50759183  0.01279969
   0.00000000  0.65489405  0.32748974
   0.00000000  0.82376652  0.65998045
   0.00000000  0.00520785  0.01279969
   0.50000000  0.99954299  0.49908598
   0.50000000  0.16688579  0.83377147
   0.50000000  0.66720190  0.83440370
   0.50000000  0.83384007  0.16768024
   0.50000000  0.50007507  0.50015014
   0.50000000  0.33283869  0.16567748
   0.50000000  0.08365609  0.66731229
   0.50000000  0.91919722  0.33839434
   0.50000000  0.74752619  0.99505238
   0.50000000  0.58483405  0.66966821
   0.50000000  0.41701175  0.33402340
   0.50000000  0.24762807  0.99525614
   0.50000000  0.91567151  0.83159633
   0.50000000  0.75799476  0.50317232
   0.50000000  0.58311879  0.16493865
   0.50000000  0.41592492  0.83159633
   0.50000000  0.24517756  0.50317232
   0.50000000  0.08181976  0.16493865
   0.00000000  0.16586706  0.83173403
   0.00000000  0.00177535  0.50355069
   0.00000000  0.83238980  0.16477970
   0.00000000  0.66568360  0.83136709
   0.00000000  0.50140926  0.50281853
   0.00000000  0.33265988  0.16531986
 
 position of ions in cartesian coordinates  (Angst):
   0.00000000  0.06880792  3.82034228
   0.00000000  0.04838296  7.69902355
   0.00000000  3.89631710  0.14931516
   0.00000000  3.81824331  3.82034228
   0.00000000  3.83866672  7.69902355
   0.00000000 -0.00926664  0.14931516
   1.93799535  5.83057569  5.82210388
   1.93799535 -1.94352485  9.72638839
   1.93799535  1.94352561  9.73376366
   1.93799535  5.83057530  1.95607928
   1.93799535  1.94352523  5.83451782
   1.93799535  1.94352484  1.93271602
   1.93799535 -1.94352562  7.78455335
   1.93799535  5.83057608  3.94755022
   1.93799535  1.94352523 11.60781609
   1.93799535  1.94352484  7.81203641
   1.93799535  1.94352562  3.89656087
   1.93799535 -1.94352524 11.61019308
   1.93799535  3.88606585  9.70101418
   1.93799535  3.93687158  5.86977321
   1.93799535  3.89209948  1.92409722
   1.93799535  0.00098538  9.70101418
   1.93799535 -0.04982113  5.86977321
   1.93799535 -0.00504980  1.92409722
   0.00000000 -1.94352485  9.70262054
   0.00000000 -1.94352523  5.87418712
   0.00000000  5.83057530  1.92224299
   0.00000000  1.94352561  9.69834007
   0.00000000  1.94352523  5.86564600
   0.00000000  1.94352484  1.92854424
 


--------------------------------------------------------------------------------------------------------


 k-point  1 :   0.0000 0.0000 0.0000  plane waves:    9467
 k-point  2 :   0.2000 0.0000 0.0000  plane waves:    9453
 k-point  3 :   0.4000 0.0000 0.0000  plane waves:    9512
 k-point  4 :   0.0000 0.3333 0.0000  plane waves:    9455
 k-point  5 :   0.2000 0.3333 0.0000  plane waves:    9444
 k-point  6 :   0.4000 0.3333 0.0000  plane waves:    9466
 k-point  7 :   0.0000-0.0000 0.5000  plane waves:    9430
 k-point  8 :   0.2000-0.0000 0.5000  plane waves:    9450
 k-point  9 :   0.4000-0.0000 0.5000  plane waves:    9470
 k-point 10 :   0.0000 0.3333 0.5000  plane waves:    9480
 k-point 11 :   0.2000 0.3333 0.5000  plane waves:    9458
 k-point 12 :   0.4000 0.3333 0.5000  plane waves:    9469

 maximum and minimum number of plane-waves per node :       969      928

 maximum number of plane-waves:      9512
 maximum index in each direction: 
   IXMAX=    7   IYMAX=   14   IZMAX=   22
   IXMIN=   -7   IYMIN=  -14   IZMIN=  -23


 real space projection operators:
  total allocation   :      21870.56 KBytes
  max/ min on nodes  :       2287.28       2134.94


 parallel 3D FFT for wavefunctions:
    minimum data exchange during FFTs selected (reduces bandwidth)
 parallel 3D FFT for charge:
    minimum data exchange during FFTs selected (reduces bandwidth)


 total amount of memory used by VASP MPI-rank0    76815. kBytes
=======================================================================

   base      :      30000. kBytes
   nonlr-proj:       7370. kBytes
   fftplans  :       2870. kBytes
   grid      :       8081. kBytes
   one-center:        294. kBytes
   wavefun   :      28200. kBytes
 
     INWAV:  cpu time    0.0000: real time    0.0001
 Broyden mixing: mesh for mixing (old mesh)
   NGX = 15   NGY = 29   NGZ = 45
  (NGX  = 60   NGY  =120   NGZ  =192)
  gives a total of  19575 points

 initial charge density was supplied:
 charge density of overlapping atoms calculated
 number of electron     225.0000000 magnetization      21.0000000
 keeping initial charge density in first step


--------------------------------------------------------------------------------------------------------


 Maximum index for non-local projection operator          894
 Maximum index for augmentation-charges         1056 (set IRDMAX)


--------------------------------------------------------------------------------------------------------


 First call to EWALD:  gamma=   0.251
 Maximum number of real-space cells 5x 3x 2
 Maximum number of reciprocal cells 2x 3x 4

    FEWALD:  cpu time    0.0017: real time    0.0017


--------------------------------------- Iteration      1(   1)  ---------------------------------------


    POTLOK:  cpu time    0.0820: real time    0.0843
    SETDIJ:  cpu time    0.0160: real time    0.0160
atom =   1  type =  1  l = 0
 
 onsite density matrix
 
spin component  1
 
  1.0989
 
spin component  2
 
  1.0989
 
 occupancies and eigenvectors
 
  o =  1.0989  v =  1.0000  0.0000      0.0000  0.0000
  o =  1.0989  v =  0.0000  1.0000      0.0000  0.0000
atom =   2  type =  1  l = 0
 
 onsite density matrix
 
spin component  1
 
  1.0989
 
spin component  2
 
  1.0989
 
 occupancies and eigenvectors
 
  o =  1.0989  v =  1.0000  0.0000      0.0000  0.0000
  o =  1.0989  v =  0.0000  1.0000      0.0000  0.0000
atom =   3  type =  1  l = 0
 
 onsite density matrix
 
spin component  1
 
  1.0989
 
spin component  2
 
  1.0989
 
 occupancies and eigenvectors
 
  o =  1.0989  v =  1.0000  0.0000      0.0000  0.0000
  o =  1.0989  v =  0.0000  1.0000      0.0000  0.0000
atom =   4  type =  1  l = 0
 
 onsite density matrix
 
spin component  1
 
  1.0989
 
spin component  2
 
  1.0989
 
 occupancies and eigenvectors
 
  o =  1.0989  v =  1.0000  0.0000      0.0000  0.0000
  o =  1.0989  v =  0.0000  1.0000      0.0000  0.0000
atom =   5  type =  1  l = 0
 
 onsite density matrix
 
spin component  1
 
  1.0989
 
spin component  2
 
  1.0989
 
 occupancies and eigenvectors
 
  o =  1.0989  v =  1.0000  0.0000      0.0000  0.0000
  o =  1.0989  v =  0.0000  1.0000      0.0000  0.0000
atom =   6  type =  1  l = 0
 
 onsite density matrix
 
spin component  1
 
  1.0989
 
spin component  2
 
  1.0989
 
 occupancies and eigenvectors
 
  o =  1.0989  v =  1.0000  0.0000      0.0000  0.0000
  o =  1.0989  v =  0.0000  1.0000      0.0000  0.0000
atom =   7  type =  2  l = 2
 
 onsite density matrix
 
spin component  1
 
  0.8272  0.0000  0.0000  0.0000  0.0000
  0.0000  0.8272  0.0000  0.0000  0.0000
  0.0000  0.0000  0.8272  0.0000  0.0000
  0.0000  0.0000  0.0000  0.8272  0.0000
  0.0000  0.0000  0.0000  0.0000  0.8272
 
spin component  2
 
  0.2256  0.0000  0.0000  0.0000  0.0000
  0.0000  0.2256  0.0000  0.0000  0.0000
  0.0000  0.0000  0.2256  0.0000  0.0000
  0.0000  0.0000  0.0000  0.2256  0.0000
  0.0000  0.0000  0.0000  0.0000  0.2256
 
 occupancies and eigenvectors
 
  o =  0.2256  v =  0.0000  0.0000  0.0000  0.0000  0.0000  0.0000  0.0000  1.0000  0.0000  0.0000      0.0000  0.0000  0.0000  0.0000  0.0000  0.0000  0.0000  0.0000  0.0000  0.0000
  o =  0.2256  v =  0.0000  0.0000  0.0000  0.0000  0.0000  1.0000  0.0000  0.0000  0.0000  0.0000      0.0000  0.0000  0.0000  0.0000  0.0000  0.0000  0.0000  0.0000  0.0000  0.0000
  o =  0.2256  v =  0.0000  0.0000  0.0000  0.0000  0.0000  0.0000  1.0000  0.0000  0.0000  0.0000      0.0000  0.0000  0.0000  0.0000  0.0000  0.0000  0.0000  0.0000  0.0000  0.0000
  o =  0.2256  v =  0.0000  0.0000  0.0000  0.0000  0.0000  0.0000  0.0000  0.0000  1.0000  0.0000      0.0000  0.0000  0.0000  0.0000  0.0000  0.0000  0.0000  0.0000  0.0000  0.0000
  o =  0.2256  v =  0.0000  0.0000  0.0000  0.0000  0.0000  0.0000  0.0000  0.0000  0.0000  1.0000      0.0000  0.0000  0.0000  0.0000  0.0000  0.0000  0.0000  0.0000  0.0000  0.0000
  o =  0.8272  v =  0.0000  1.0000  0.0000  0.0000  0.0000  0.0000  0.0000  0.0000  0.0000  0.0000      0.0000  0.0000  0.0000  0.0000  0.0000  0.0000  0.0000  0.0000  0.0000  0.0000
  o =  0.8272  v =  0.0000  0.0000  1.0000  0.0000  0.0000  0.0000  0.0000  0.0000  0.0000  0.0000      0.0000  0.0000  0.0000  0.0000  0.0000  0.0000  0.0000  0.0000  0.0000  0.0000
  o =  0.8272  v =  1.0000  0.0000  0.0000  0.0000  0.0000  0.0000  0.0000  0.0000  0.0000  0.0000      0.0000  0.0000  0.0000  0.0000  0.0000  0.0000  0.0000  0.0000  0.0000  0.0000
  o =  0.8272  v =  0.0000  0.0000  0.0000  1.0000  0.0000  0.0000  0.0000  0.0000  0.0000  0.0000      0.0000  0.0000  0.0000  0.0000  0.0000  0.0000  0.0000  0.0000  0.0000  0.0000
  o =  0.8272  v =  0.0000  0.0000  0.0000  0.0000  1.0000  0.0000  0.0000  0.0000  0.0000  0.0000      0.0000  0.0000  0.0000  0.0000  0.0000  0.0000  0.0000  0.0000  0.0000  0.0000
atom =   8  type =  2  l = 2
 
 onsite density matrix
 
spin component  1
 
  0.8272  0.0000  0.0000  0.0000  0.0000
  0.0000  0.8272  0.0000  0.0000  0.0000
  0.0000  0.0000  0.8272  0.0000  0.0000
  0.0000  0.0000  0.0000  0.8272  0.0000
  0.0000  0.0000  0.0000  0.0000  0.8272
 
spin component  2
 
  0.2256  0.0000  0.0000  0.0000  0.0000
  0.0000  0.2256  0.0000  0.0000  0.0000
  0.0000  0.0000  0.2256  0.0000  0.0000
  0.0000  0.0000  0.0000  0.2256  0.0000
  0.0000  0.0000  0.0000  0.0000  0.2256
 
 occupancies and eigenvectors
 
  o =  0.2256  v =  0.0000  0.0000  0.0000  0.0000  0.0000  0.0000  0.0000  1.0000  0.0000  0.0000      0.0000  0.0000  0.0000  0.0000  0.0000  0.0000  0.0000  0.0000  0.0000  0.0000
  o =  0.2256  v =  0.0000  0.0000  0.0000  0.0000  0.0000  1.0000  0.0000  0.0000  0.0000  0.0000      0.0000  0.0000  0.0000  0.0000  0.0000  0.0000  0.0000  0.0000  0.0000  0.0000
  o =  0.2256  v =  0.0000  0.0000  0.0000  0.0000  0.0000  0.0000  1.0000  0.0000  0.0000  0.0000      0.0000  0.0000  0.0000  0.0000  0.0000  0.0000  0.0000  0.0000  0.0000  0.0000
  o =  0.2256  v =  0.0000  0.0000  0.0000  0.0000  0.0000  0.0000  0.0000  0.0000  1.0000  0.0000      0.0000  0.0000  0.0000  0.0000  0.0000  0.0000  0.0000  0.0000  0.0000  0.0000
  o =  0.2256  v =  0.0000  0.0000  0.0000  0.0000  0.0000  0.0000  0.0000  0.0000  0.0000  1.0000      0.0000  0.0000  0.0000  0.0000  0.0000  0.0000  0.0000  0.0000  0.0000  0.0000
  o =  0.8272  v =  0.0000  1.0000  0.0000  0.0000  0.0000  0.0000  0.0000  0.0000  0.0000  0.0000      0.0000  0.0000  0.0000  0.0000  0.0000  0.0000  0.0000  0.0000  0.0000  0.0000
  o =  0.8272  v =  0.0000  0.0000  1.0000  0.0000  0.0000  0.0000  0.0000  0.0000  0.0000  0.0000      0.0000  0.0000  0.0000  0.0000  0.0000  0.0000  0.0000  0.0000  0.0000  0.0000
  o =  0.8272  v =  1.0000  0.0000  0.0000  0.0000  0.0000  0.0000  0.0000  0.0000  0.0000  0.0000      0.0000  0.0000  0.0000  0.0000  0.0000  0.0000  0.0000  0.0000  0.0000  0.0000
  o =  0.8272  v =  0.0000  0.0000  0.0000  1.0000  0.0000  0.0000  0.0000  0.0000  0.0000  0.0000      0.0000  0.0000  0.0000  0.0000  0.0000  0.0000  0.0000  0.0000  0.0000  0.0000
  o =  0.8272  v =  0.0000  0.0000  0.0000  0.0000  1.0000  0.0000  0.0000  0.0000  0.0000  0.0000      0.0000  0.0000  0.0000  0.0000  0.0000  0.0000  0.0000  0.0000  0.0000  0.0000
atom =   9  type =  2  l = 2
 
 onsite density matrix
 
spin component  1
 
  0.8272  0.0000  0.0000  0.0000  0.0000
  0.0000  0.8272  0.0000  0.0000  0.0000
  0.0000  0.0000  0.8272  0.0000  0.0000
  0.0000  0.0000  0.0000  0.8272  0.0000
  0.0000  0.0000  0.0000  0.0000  0.8272
 
spin component  2
 
  0.2256  0.0000  0.0000  0.0000  0.0000
  0.0000  0.2256  0.0000  0.0000  0.0000
  0.0000  0.0000  0.2256  0.0000  0.0000
  0.0000  0.0000  0.0000  0.2256  0.0000
  0.0000  0.0000  0.0000  0.0000  0.2256
 
 occupancies and eigenvectors
 
  o =  0.2256  v =  0.0000  0.0000  0.0000  0.0000  0.0000  0.0000  0.0000  1.0000  0.0000  0.0000      0.0000  0.0000  0.0000  0.0000  0.0000  0.0000  0.0000  0.0000  0.0000  0.0000
  o =  0.2256  v =  0.0000  0.0000  0.0000  0.0000  0.0000  1.0000  0.0000  0.0000  0.0000  0.0000      0.0000  0.0000  0.0000  0.0000  0.0000  0.0000  0.0000  0.0000  0.0000  0.0000
  o =  0.2256  v =  0.0000  0.0000  0.0000  0.0000  0.0000  0.0000  1.0000  0.0000  0.0000  0.0000      0.0000  0.0000  0.0000  0.0000  0.0000  0.0000  0.0000  0.0000  0.0000  0.0000
  o =  0.2256  v =  0.0000  0.0000  0.0000  0.0000  0.0000  0.0000  0.0000  0.0000  1.0000  0.0000      0.0000  0.0000  0.0000  0.0000  0.0000  0.0000  0.0000  0.0000  0.0000  0.0000
  o =  0.2256  v =  0.0000  0.0000  0.0000  0.0000  0.0000  0.0000  0.0000  0.0000  0.0000  1.0000      0.0000  0.0000  0.0000  0.0000  0.0000  0.0000  0.0000  0.0000  0.0000  0.0000
  o =  0.8272  v =  0.0000  1.0000  0.0000  0.0000  0.0000  0.0000  0.0000  0.0000  0.0000  0.0000      0.0000  0.0000  0.0000  0.0000  0.0000  0.0000  0.0000  0.0000  0.0000  0.0000
  o =  0.8272  v =  0.0000  0.0000  1.0000  0.0000  0.0000  0.0000  0.0000  0.0000  0.0000  0.0000      0.0000  0.0000  0.0000  0.0000  0.0000  0.0000  0.0000  0.0000  0.0000  0.0000
  o =  0.8272  v =  1.0000  0.0000  0.0000  0.0000  0.0000  0.0000  0.0000  0.0000  0.0000  0.0000      0.0000  0.0000  0.0000  0.0000  0.0000  0.0000  0.0000  0.0000  0.0000  0.0000
  o =  0.8272  v =  0.0000  0.0000  0.0000  1.0000  0.0000  0.0000  0.0000  0.0000  0.0000  0.0000      0.0000  0.0000  0.0000  0.0000  0.0000  0.0000  0.0000  0.0000  0.0000  0.0000
  o =  0.8272  v =  0.0000  0.0000  0.0000  0.0000  1.0000  0.0000  0.0000  0.0000  0.0000  0.0000      0.0000  0.0000  0.0000  0.0000  0.0000  0.0000  0.0000  0.0000  0.0000  0.0000
atom =  10  type =  3  l = 2
 
 onsite density matrix
 
spin component  1
 
  1.1008  0.0000  0.0000  0.0000  0.0000
  0.0000  1.1008  0.0000  0.0000  0.0000
  0.0000  0.0000  1.1008  0.0000  0.0000
  0.0000  0.0000  0.0000  1.1008  0.0000
  0.0000  0.0000  0.0000  0.0000  1.1008
 
spin component  2
 
  0.5927  0.0000  0.0000  0.0000  0.0000
  0.0000  0.5927  0.0000  0.0000  0.0000
  0.0000  0.0000  0.5927  0.0000  0.0000
  0.0000  0.0000  0.0000  0.5927  0.0000
  0.0000  0.0000  0.0000  0.0000  0.5927
 
 occupancies and eigenvectors
 
  o =  0.5927  v =  0.0000  0.0000  0.0000  0.0000  0.0000  1.0000  0.0000  0.0000  0.0000  0.0000      0.0000  0.0000  0.0000  0.0000  0.0000  0.0000  0.0000  0.0000  0.0000  0.0000
  o =  0.5927  v =  0.0000  0.0000  0.0000  0.0000  0.0000  0.0000  1.0000  0.0000  0.0000  0.0000      0.0000  0.0000  0.0000  0.0000  0.0000  0.0000  0.0000  0.0000  0.0000  0.0000
  o =  0.5927  v =  0.0000  0.0000  0.0000  0.0000  0.0000  0.0000  0.0000  1.0000  0.0000  0.0000      0.0000  0.0000  0.0000  0.0000  0.0000  0.0000  0.0000  0.0000  0.0000  0.0000
  o =  0.5927  v =  0.0000  0.0000  0.0000  0.0000  0.0000  0.0000  0.0000  0.0000  1.0000  0.0000      0.0000  0.0000  0.0000  0.0000  0.0000  0.0000  0.0000  0.0000  0.0000  0.0000
  o =  0.5927  v =  0.0000  0.0000  0.0000  0.0000  0.0000  0.0000  0.0000  0.0000  0.0000  1.0000      0.0000  0.0000  0.0000  0.0000  0.0000  0.0000  0.0000  0.0000  0.0000  0.0000
  o =  1.1008  v =  1.0000  0.0000  0.0000  0.0000  0.0000  0.0000  0.0000  0.0000  0.0000  0.0000      0.0000  0.0000  0.0000  0.0000  0.0000  0.0000  0.0000  0.0000  0.0000  0.0000
  o =  1.1008  v =  0.0000  1.0000  0.0000  0.0000  0.0000  0.0000  0.0000  0.0000  0.0000  0.0000      0.0000  0.0000  0.0000  0.0000  0.0000  0.0000  0.0000  0.0000  0.0000  0.0000
  o =  1.1008  v =  0.0000  0.0000  1.0000  0.0000  0.0000  0.0000  0.0000  0.0000  0.0000  0.0000      0.0000  0.0000  0.0000  0.0000  0.0000  0.0000  0.0000  0.0000  0.0000  0.0000
  o =  1.1008  v =  0.0000  0.0000  0.0000  1.0000  0.0000  0.0000  0.0000  0.0000  0.0000  0.0000      0.0000  0.0000  0.0000  0.0000  0.0000  0.0000  0.0000  0.0000  0.0000  0.0000
  o =  1.1008  v =  0.0000  0.0000  0.0000  0.0000  1.0000  0.0000  0.0000  0.0000  0.0000  0.0000      0.0000  0.0000  0.0000  0.0000  0.0000  0.0000  0.0000  0.0000  0.0000  0.0000
atom =  11  type =  3  l = 2
 
 onsite density matrix
 
spin component  1
 
  1.1008  0.0000  0.0000  0.0000  0.0000
  0.0000  1.1008  0.0000  0.0000  0.0000
  0.0000  0.0000  1.1008  0.0000  0.0000
  0.0000  0.0000  0.0000  1.1008  0.0000
  0.0000  0.0000  0.0000  0.0000  1.1008
 
spin component  2
 
  0.5927  0.0000  0.0000  0.0000  0.0000
  0.0000  0.5927  0.0000  0.0000  0.0000
  0.0000  0.0000  0.5927  0.0000  0.0000
  0.0000  0.0000  0.0000  0.5927  0.0000
  0.0000  0.0000  0.0000  0.0000  0.5927
 
 occupancies and eigenvectors
 
  o =  0.5927  v =  0.0000  0.0000  0.0000  0.0000  0.0000  1.0000  0.0000  0.0000  0.0000  0.0000      0.0000  0.0000  0.0000  0.0000  0.0000  0.0000  0.0000  0.0000  0.0000  0.0000
  o =  0.5927  v =  0.0000  0.0000  0.0000  0.0000  0.0000  0.0000  1.0000  0.0000  0.0000  0.0000      0.0000  0.0000  0.0000  0.0000  0.0000  0.0000  0.0000  0.0000  0.0000  0.0000
  o =  0.5927  v =  0.0000  0.0000  0.0000  0.0000  0.0000  0.0000  0.0000  1.0000  0.0000  0.0000      0.0000  0.0000  0.0000  0.0000  0.0000  0.0000  0.0000  0.0000  0.0000  0.0000
  o =  0.5927  v =  0.0000  0.0000  0.0000  0.0000  0.0000  0.0000  0.0000  0.0000  1.0000  0.0000      0.0000  0.0000  0.0000  0.0000  0.0000  0.0000  0.0000  0.0000  0.0000  0.0000
  o =  0.5927  v =  0.0000  0.0000  0.0000  0.0000  0.0000  0.0000  0.0000  0.0000  0.0000  1.0000      0.0000  0.0000  0.0000  0.0000  0.0000  0.0000  0.0000  0.0000  0.0000  0.0000
  o =  1.1008  v =  1.0000  0.0000  0.0000  0.0000  0.0000  0.0000  0.0000  0.0000  0.0000  0.0000      0.0000  0.0000  0.0000  0.0000  0.0000  0.0000  0.0000  0.0000  0.0000  0.0000
  o =  1.1008  v =  0.0000  1.0000  0.0000  0.0000  0.0000  0.0000  0.0000  0.0000  0.0000  0.0000      0.0000  0.0000  0.0000  0.0000  0.0000  0.0000  0.0000  0.0000  0.0000  0.0000
  o =  1.1008  v =  0.0000  0.0000  1.0000  0.0000  0.0000  0.0000  0.0000  0.0000  0.0000  0.0000      0.0000  0.0000  0.0000  0.0000  0.0000  0.0000  0.0000  0.0000  0.0000  0.0000
  o =  1.1008  v =  0.0000  0.0000  0.0000  1.0000  0.0000  0.0000  0.0000  0.0000  0.0000  0.0000      0.0000  0.0000  0.0000  0.0000  0.0000  0.0000  0.0000  0.0000  0.0000  0.0000
  o =  1.1008  v =  0.0000  0.0000  0.0000  0.0000  1.0000  0.0000  0.0000  0.0000  0.0000  0.0000      0.0000  0.0000  0.0000  0.0000  0.0000  0.0000  0.0000  0.0000  0.0000  0.0000
atom =  12  type =  3  l = 2
 
 onsite density matrix
 
spin component  1
 
  1.1008  0.0000  0.0000  0.0000  0.0000
  0.0000  1.1008  0.0000  0.0000  0.0000
  0.0000  0.0000  1.1008  0.0000  0.0000
  0.0000  0.0000  0.0000  1.1008  0.0000
  0.0000  0.0000  0.0000  0.0000  1.1008
 
spin component  2
 
  0.5927  0.0000  0.0000  0.0000  0.0000
  0.0000  0.5927  0.0000  0.0000  0.0000
  0.0000  0.0000  0.5927  0.0000  0.0000
  0.0000  0.0000  0.0000  0.5927  0.0000
  0.0000  0.0000  0.0000  0.0000  0.5927
 
 occupancies and eigenvectors
 
  o =  0.5927  v =  0.0000  0.0000  0.0000  0.0000  0.0000  1.0000  0.0000  0.0000  0.0000  0.0000      0.0000  0.0000  0.0000  0.0000  0.0000  0.0000  0.0000  0.0000  0.0000  0.0000
  o =  0.5927  v =  0.0000  0.0000  0.0000  0.0000  0.0000  0.0000  1.0000  0.0000  0.0000  0.0000      0.0000  0.0000  0.0000  0.0000  0.0000  0.0000  0.0000  0.0000  0.0000  0.0000
  o =  0.5927  v =  0.0000  0.0000  0.0000  0.0000  0.0000  0.0000  0.0000  1.0000  0.0000  0.0000      0.0000  0.0000  0.0000  0.0000  0.0000  0.0000  0.0000  0.0000  0.0000  0.0000
  o =  0.5927  v =  0.0000  0.0000  0.0000  0.0000  0.0000  0.0000  0.0000  0.0000  1.0000  0.0000      0.0000  0.0000  0.0000  0.0000  0.0000  0.0000  0.0000  0.0000  0.0000  0.0000
  o =  0.5927  v =  0.0000  0.0000  0.0000  0.0000  0.0000  0.0000  0.0000  0.0000  0.0000  1.0000      0.0000  0.0000  0.0000  0.0000  0.0000  0.0000  0.0000  0.0000  0.0000  0.0000
  o =  1.1008  v =  1.0000  0.0000  0.0000  0.0000  0.0000  0.0000  0.0000  0.0000  0.0000  0.0000      0.0000  0.0000  0.0000  0.0000  0.0000  0.0000  0.0000  0.0000  0.0000  0.0000
  o =  1.1008  v =  0.0000  1.0000  0.0000  0.0000  0.0000  0.0000  0.0000  0.0000  0.0000  0.0000      0.0000  0.0000  0.0000  0.0000  0.0000  0.0000  0.0000  0.0000  0.0000  0.0000
  o =  1.1008  v =  0.0000  0.0000  1.0000  0.0000  0.0000  0.0000  0.0000  0.0000  0.0000  0.0000      0.0000  0.0000  0.0000  0.0000  0.0000  0.0000  0.0000  0.0000  0.0000  0.0000
  o =  1.1008  v =  0.0000  0.0000  0.0000  1.0000  0.0000  0.0000  0.0000  0.0000  0.0000  0.0000      0.0000  0.0000  0.0000  0.0000  0.0000  0.0000  0.0000  0.0000  0.0000  0.0000
  o =  1.1008  v =  0.0000  0.0000  0.0000  0.0000  1.0000  0.0000  0.0000  0.0000  0.0000  0.0000      0.0000  0.0000  0.0000  0.0000  0.0000  0.0000  0.0000  0.0000  0.0000  0.0000
atom =  13  type =  4  l = 0
 
 onsite density matrix
 
spin component  1
 
  0.8190
 
spin component  2
 
  0.8190
 
 occupancies and eigenvectors
 
  o =  0.8190  v =  1.0000  0.0000      0.0000  0.0000
  o =  0.8190  v =  0.0000  1.0000      0.0000  0.0000
atom =  14  type =  4  l = 0
 
 onsite density matrix
 
spin component  1
 
  0.8190
 
spin component  2
 
  0.8190
 
 occupancies and eigenvectors
 
  o =  0.8190  v =  1.0000  0.0000      0.0000  0.0000
  o =  0.8190  v =  0.0000  1.0000      0.0000  0.0000
atom =  15  type =  4  l = 0
 
 onsite density matrix
 
spin component  1
 
  0.8190
 
spin component  2
 
  0.8190
 
 occupancies and eigenvectors
 
  o =  0.8190  v =  1.0000  0.0000      0.0000  0.0000
  o =  0.8190  v =  0.0000  1.0000      0.0000  0.0000
atom =  16  type =  4  l = 0
 
 onsite density matrix
 
spin component  1
 
  0.8190
 
spin component  2
 
  0.8190
 
 occupancies and eigenvectors
 
  o =  0.8190  v =  1.0000  0.0000      0.0000  0.0000
  o =  0.8190  v =  0.0000  1.0000      0.0000  0.0000
atom =  17  type =  4  l = 0
 
 onsite density matrix
 
spin component  1
 
  0.8190
 
spin component  2
 
  0.8190
 
 occupancies and eigenvectors
 
  o =  0.8190  v =  1.0000  0.0000      0.0000  0.0000
  o =  0.8190  v =  0.0000  1.0000      0.0000  0.0000
atom =  18  type =  4  l = 0
 
 onsite density matrix
 
spin component  1
 
  0.8190
 
spin component  2
 
  0.8190
 
 occupancies and eigenvectors
 
  o =  0.8190  v =  1.0000  0.0000      0.0000  0.0000
  o =  0.8190  v =  0.0000  1.0000      0.0000  0.0000
atom =  19  type =  4  l = 0
 
 onsite density matrix
 
spin component  1
 
  0.8190
 
spin component  2
 
  0.8190
 
 occupancies and eigenvectors
 
  o =  0.8190  v =  1.0000  0.0000      0.0000  0.0000
  o =  0.8190  v =  0.0000  1.0000      0.0000  0.0000
atom =  20  type =  4  l = 0
 
 onsite density matrix
 
spin component  1
 
  0.8190
 
spin component  2
 
  0.8190
 
 occupancies and eigenvectors
 
  o =  0.8190  v =  1.0000  0.0000      0.0000  0.0000
  o =  0.8190  v =  0.0000  1.0000      0.0000  0.0000
atom =  21  type =  4  l = 0
 
 onsite density matrix
 
spin component  1
 
  0.8190
 
spin component  2
 
  0.8190
 
 occupancies and eigenvectors
 
  o =  0.8190  v =  1.0000  0.0000      0.0000  0.0000
  o =  0.8190  v =  0.0000  1.0000      0.0000  0.0000
atom =  22  type =  4  l = 0
 
 onsite density matrix
 
spin component  1
 
  0.8190
 
spin component  2
 
  0.8190
 
 occupancies and eigenvectors
 
  o =  0.8190  v =  1.0000  0.0000      0.0000  0.0000
  o =  0.8190  v =  0.0000  1.0000      0.0000  0.0000
atom =  23  type =  4  l = 0
 
 onsite density matrix
 
spin component  1
 
  0.8190
 
spin component  2
 
  0.8190
 
 occupancies and eigenvectors
 
  o =  0.8190  v =  1.0000  0.0000      0.0000  0.0000
  o =  0.8190  v =  0.0000  1.0000      0.0000  0.0000
atom =  24  type =  4  l = 0
 
 onsite density matrix
 
spin component  1
 
  0.8190
 
spin component  2
 
  0.8190
 
 occupancies and eigenvectors
 
  o =  0.8190  v =  1.0000  0.0000      0.0000  0.0000
  o =  0.8190  v =  0.0000  1.0000      0.0000  0.0000
atom =  25  type =  4  l = 0
 
 onsite density matrix
 
spin component  1
 
  0.8190
 
spin component  2
 
  0.8190
 
 occupancies and eigenvectors
 
  o =  0.8190  v =  1.0000  0.0000      0.0000  0.0000
  o =  0.8190  v =  0.0000  1.0000      0.0000  0.0000
atom =  26  type =  4  l = 0
 
 onsite density matrix
 
spin component  1
 
  0.8190
 
spin component  2
 
  0.8190
 
 occupancies and eigenvectors
 
  o =  0.8190  v =  1.0000  0.0000      0.0000  0.0000
  o =  0.8190  v =  0.0000  1.0000      0.0000  0.0000
atom =  27  type =  4  l = 0
 
 onsite density matrix
 
spin component  1
 
  0.8190
 
spin component  2
 
  0.8190
 
 occupancies and eigenvectors
 
  o =  0.8190  v =  1.0000  0.0000      0.0000  0.0000
  o =  0.8190  v =  0.0000  1.0000      0.0000  0.0000
atom =  28  type =  4  l = 0
 
 onsite density matrix
 
spin component  1
 
  0.8190
 
spin component  2
 
  0.8190
 
 occupancies and eigenvectors
 
  o =  0.8190  v =  1.0000  0.0000      0.0000  0.0000
  o =  0.8190  v =  0.0000  1.0000      0.0000  0.0000
atom =  29  type =  4  l = 0
 
 onsite density matrix
 
spin component  1
 
  0.8190
 
spin component  2
 
  0.8190
 
 occupancies and eigenvectors
 
  o =  0.8190  v =  1.0000  0.0000      0.0000  0.0000
  o =  0.8190  v =  0.0000  1.0000      0.0000  0.0000
atom =  30  type =  4  l = 0
 
 onsite density matrix
 
spin component  1
 
  0.8190
 
spin component  2
 
  0.8190
 
 occupancies and eigenvectors
 
  o =  0.8190  v =  1.0000  0.0000      0.0000  0.0000
  o =  0.8190  v =  0.0000  1.0000      0.0000  0.0000
     EDDAV:  cpu time    4.4725: real time    4.4878
 BZINTS: Fermi energy: 32.030840;225.000000 electrons
         Band energy:3385.369165;  BLOECHL correction: -0.166171
       DOS:  cpu time    0.0351: real time    0.0355
    --------------------------------------------
      LOOP:  cpu time    4.6057: real time    4.6237

 eigenvalue-minimisations  :  7460
 total energy-change (2. order) : 0.3583037E+04  (-0.7859958E+04)
 number of electron     225.0000000 magnetization      21.0000000
 augmentation part      225.0000000 magnetization      21.0000000

 Free energy of the ion-electron system (eV)
  ---------------------------------------------------
  alpha Z        PSCENC =       982.42232976
  Ewald energy   TEWEN  =    -15423.89129865
  -Hartree energ DENC   =     -3486.72200382
  -exchange      EXHF   =         0.00000000
  -V(xc)+E(xc)   XCENC  =       754.18386161
  PAW double counting   =     14201.63522633   -14291.52419254
  entropy T*S    EENTRO =         0.00000000
  eigenvalues    EBANDS =      3385.36916512
  atomic energy  EATOM  =     17461.56381371
  Solvation  Ediel_sol  =         0.00000000
  ---------------------------------------------------
  free energy    TOTEN  =      3583.03690152 eV

  energy without entropy =     3583.03690152  energy(sigma->0) =     3583.03690152


--------------------------------------------------------------------------------------------------------




--------------------------------------- Iteration      1(   2)  ---------------------------------------


     EDDAV:  cpu time    4.6181: real time    4.6330
 BZINTS: Fermi energy: 16.551093;225.000000 electrons
         Band energy:1054.680377;  BLOECHL correction: -0.038721
       DOS:  cpu time    0.0396: real time    0.0397
    --------------------------------------------
      LOOP:  cpu time    4.6577: real time    4.6727

 eigenvalue-minimisations  :  7752
 total energy-change (2. order) :-0.2330689E+04  (-0.2098503E+04)
 number of electron     225.0000000 magnetization      21.0000000
 augmentation part      225.0000000 magnetization      21.0000000

 Free energy of the ion-electron system (eV)
  ---------------------------------------------------
  alpha Z        PSCENC =       982.42232976
  Ewald energy   TEWEN  =    -15423.89129865
  -Hartree energ DENC   =     -3486.72200382
  -exchange      EXHF   =         0.00000000
  -V(xc)+E(xc)   XCENC  =       754.18386161
  PAW double counting   =     14201.63522633   -14291.52419254
  entropy T*S    EENTRO =         0.00000000
  eigenvalues    EBANDS =      1054.68037743
  atomic energy  EATOM  =     17461.56381371
  Solvation  Ediel_sol  =         0.00000000
  ---------------------------------------------------
  free energy    TOTEN  =      1252.34811383 eV

  energy without entropy =     1252.34811383  energy(sigma->0) =     1252.34811383


--------------------------------------------------------------------------------------------------------




--------------------------------------- Iteration      1(   3)  ---------------------------------------


     EDDAV:  cpu time    4.6158: real time    4.6355
 BZINTS: Fermi energy: 12.225033;225.000000 electrons
         Band energy:  78.926150;  BLOECHL correction: -0.041873
       DOS:  cpu time    0.0373: real time    0.0405
    --------------------------------------------
      LOOP:  cpu time    4.6531: real time    4.6760

 eigenvalue-minimisations  :  7808
 total energy-change (2. order) :-0.9757542E+03  (-0.8723836E+03)
 number of electron     225.0000000 magnetization      21.0000000
 augmentation part      225.0000000 magnetization      21.0000000

 Free energy of the ion-electron system (eV)
  ---------------------------------------------------
  alpha Z        PSCENC =       982.42232976
  Ewald energy   TEWEN  =    -15423.89129865
  -Hartree energ DENC   =     -3486.72200382
  -exchange      EXHF   =         0.00000000
  -V(xc)+E(xc)   XCENC  =       754.18386161
  PAW double counting   =     14201.63522633   -14291.52419254
  entropy T*S    EENTRO =         0.00000000
  eigenvalues    EBANDS =        78.92614982
  atomic energy  EATOM  =     17461.56381371
  Solvation  Ediel_sol  =         0.00000000
  ---------------------------------------------------
  free energy    TOTEN  =       276.59388622 eV

  energy without entropy =      276.59388622  energy(sigma->0) =      276.59388622


--------------------------------------------------------------------------------------------------------




--------------------------------------- Iteration      1(   4)  ---------------------------------------


     EDDAV:  cpu time    6.2107: real time    6.2309
 BZINTS: Fermi energy: 11.538231;225.000000 electrons
         Band energy:-354.170453;  BLOECHL correction: -0.007991
       DOS:  cpu time    0.0361: real time    0.0362
    --------------------------------------------
      LOOP:  cpu time    6.2468: real time    6.2671

 eigenvalue-minimisations  : 11170
 total energy-change (2. order) :-0.4330966E+03  (-0.4075268E+03)
 number of electron     225.0000000 magnetization      21.0000000
 augmentation part      225.0000000 magnetization      21.0000000

 Free energy of the ion-electron system (eV)
  ---------------------------------------------------
  alpha Z        PSCENC =       982.42232976
  Ewald energy   TEWEN  =    -15423.89129865
  -Hartree energ DENC   =     -3486.72200382
  -exchange      EXHF   =         0.00000000
  -V(xc)+E(xc)   XCENC  =       754.18386161
  PAW double counting   =     14201.63522633   -14291.52419254
  entropy T*S    EENTRO =         0.00000000
  eigenvalues    EBANDS =      -354.17045274
  atomic energy  EATOM  =     17461.56381371
  Solvation  Ediel_sol  =         0.00000000
  ---------------------------------------------------
  free energy    TOTEN  =      -156.50271634 eV

  energy without entropy =     -156.50271634  energy(sigma->0) =     -156.50271634


--------------------------------------------------------------------------------------------------------




--------------------------------------- Iteration      1(   5)  ---------------------------------------


     EDDAV:  cpu time    6.9608: real time    6.9845
 BZINTS: Fermi energy: 11.035292;225.000000 electrons
         Band energy:-447.132007;  BLOECHL correction: -0.078276
       DOS:  cpu time    0.0356: real time    0.0357
    CHARGE:  cpu time    0.2058: real time    0.2066
    MIXING:  cpu time    0.0037: real time    0.0040
    --------------------------------------------
      LOOP:  cpu time    7.2060: real time    7.2309

 eigenvalue-minimisations  : 12794
 total energy-change (2. order) :-0.9296155E+02  (-0.8951921E+02)
 number of electron     225.0000058 magnetization      19.3364571
 augmentation part       28.6393824 magnetization      14.3483888

 Broyden mixing:
  rms(total) = 0.76063E+01    rms(broyden)= 0.76054E+01
  rms(prec ) = 0.84209E+01
  weight for this iteration     100.00

 Free energy of the ion-electron system (eV)
  ---------------------------------------------------
  alpha Z        PSCENC =       982.42232976
  Ewald energy   TEWEN  =    -15423.89129865
  -Hartree energ DENC   =     -3486.72200382
  -exchange      EXHF   =         0.00000000
  -V(xc)+E(xc)   XCENC  =       754.18386161
  PAW double counting   =     14201.63522633   -14291.52419254
  entropy T*S    EENTRO =         0.00000000
  eigenvalues    EBANDS =      -447.13200671
  atomic energy  EATOM  =     17461.56381371
  Solvation  Ediel_sol  =         0.00000000
  ---------------------------------------------------
  free energy    TOTEN  =      -249.46427031 eV

  energy without entropy =     -249.46427031  energy(sigma->0) =     -249.46427031


--------------------------------------------------------------------------------------------------------




--------------------------------------- Iteration      1(   6)  ---------------------------------------


    POTLOK:  cpu time    0.0796: real time    0.0802
    SETDIJ:  cpu time    0.0147: real time    0.0147
atom =   1  type =  1  l = 0
 
 onsite density matrix
 
spin component  1
 
  1.0558
 
spin component  2
 
  1.0562
 
 occupancies and eigenvectors
 
  o =  1.0558  v =  1.0000  0.0000      0.0000  0.0000
  o =  1.0562  v =  0.0000  1.0000      0.0000  0.0000
atom =   2  type =  1  l = 0
 
 onsite density matrix
 
spin component  1
 
  1.0563
 
spin component  2
 
  1.0564
 
 occupancies and eigenvectors
 
  o =  1.0563  v =  1.0000  0.0000      0.0000  0.0000
  o =  1.0564  v =  0.0000  1.0000      0.0000  0.0000
atom =   3  type =  1  l = 0
 
 onsite density matrix
 
spin component  1
 
  1.0569
 
spin component  2
 
  1.0569
 
 occupancies and eigenvectors
 
  o =  1.0569  v =  1.0000  0.0000      0.0000  0.0000
  o =  1.0569  v =  0.0000  1.0000      0.0000  0.0000
atom =   4  type =  1  l = 0
 
 onsite density matrix
 
spin component  1
 
  1.0558
 
spin component  2
 
  1.0562
 
 occupancies and eigenvectors
 
  o =  1.0558  v =  1.0000  0.0000      0.0000  0.0000
  o =  1.0562  v =  0.0000  1.0000      0.0000  0.0000
atom =   5  type =  1  l = 0
 
 onsite density matrix
 
spin component  1
 
  1.0563
 
spin component  2
 
  1.0564
 
 occupancies and eigenvectors
 
  o =  1.0563  v =  1.0000  0.0000      0.0000  0.0000
  o =  1.0564  v =  0.0000  1.0000      0.0000  0.0000
atom =   6  type =  1  l = 0
 
 onsite density matrix
 
spin component  1
 
  1.0569
 
spin component  2
 
  1.0569
 
 occupancies and eigenvectors
 
  o =  1.0569  v =  1.0000  0.0000      0.0000  0.0000
  o =  1.0569  v =  0.0000  1.0000      0.0000  0.0000
atom =   7  type =  2  l = 2
 
 onsite density matrix
 
spin component  1
 
  0.9557  0.0000  0.0000 -0.0000  0.0000
  0.0000  0.9325  0.0000  0.0000  0.0000
  0.0000  0.0000  0.3571  0.0000 -0.0282
 -0.0000  0.0000  0.0000  0.9460  0.0000
  0.0000  0.0000 -0.0282  0.0000  0.3900
 
spin component  2
 
  0.0324  0.0000  0.0000  0.0000  0.0000
  0.0000  0.0489 -0.0000  0.0000 -0.0000
  0.0000 -0.0000  0.4476  0.0000  0.0202
  0.0000  0.0000  0.0000  0.0368  0.0000
  0.0000 -0.0000  0.0202  0.0000  0.4276
 
 occupancies and eigenvectors
 
  o =  0.0324  v =  0.0000  0.0000  0.0000  0.0000  0.0000 -1.0000  0.0000  0.0000  0.0000  0.0000      0.0000  0.0000  0.0000  0.0000  0.0000  0.0000  0.0000  0.0000  0.0000  0.0000
  o =  0.0368  v =  0.0000  0.0000  0.0000  0.0000  0.0000 -0.0000  0.0000  0.0000 -1.0000  0.0000      0.0000  0.0000  0.0000  0.0000  0.0000  0.0000  0.0000  0.0000  0.0000  0.0000
  o =  0.0489  v =  0.0000  0.0000  0.0000  0.0000  0.0000  0.0000  1.0000  0.0000  0.0000  0.0000      0.0000  0.0000  0.0000  0.0000  0.0000  0.0000  0.0000  0.0000  0.0000  0.0000
  o =  0.3409  v =  0.0000 -0.0000  0.8667  0.0000  0.4988  0.0000  0.0000  0.0000  0.0000  0.0000      0.0000  0.0000  0.0000  0.0000  0.0000  0.0000  0.0000  0.0000  0.0000  0.0000
  o =  0.4062  v =  0.0000  0.0000  0.4988  0.0000 -0.8667  0.0000  0.0000  0.0000  0.0000  0.0000      0.0000  0.0000  0.0000  0.0000  0.0000  0.0000  0.0000  0.0000  0.0000  0.0000
  o =  0.4151  v =  0.0000  0.0000  0.0000  0.0000  0.0000  0.0000 -0.0000 -0.5275  0.0000  0.8495      0.0000  0.0000  0.0000  0.0000  0.0000  0.0000  0.0000  0.0000  0.0000  0.0000
  o =  0.4601  v =  0.0000  0.0000  0.0000  0.0000  0.0000  0.0000  0.0000 -0.8495  0.0000 -0.5275      0.0000  0.0000  0.0000  0.0000  0.0000  0.0000  0.0000  0.0000  0.0000  0.0000
  o =  0.9325  v =  0.0000  1.0000  0.0000  0.0000  0.0000  0.0000  0.0000  0.0000  0.0000  0.0000      0.0000  0.0000  0.0000  0.0000  0.0000  0.0000  0.0000  0.0000  0.0000  0.0000
  o =  0.9460  v = -0.0000  0.0000  0.0000 -1.0000  0.0000  0.0000  0.0000  0.0000  0.0000  0.0000      0.0000  0.0000  0.0000  0.0000  0.0000  0.0000  0.0000  0.0000  0.0000  0.0000
  o =  0.9557  v = -1.0000  0.0000  0.0000  0.0000  0.0000  0.0000  0.0000  0.0000  0.0000  0.0000      0.0000  0.0000  0.0000  0.0000  0.0000  0.0000  0.0000  0.0000  0.0000  0.0000
atom =   8  type =  2  l = 2
 
 onsite density matrix
 
spin component  1
 
  0.9339  0.0000  0.0000 -0.0000  0.0000
  0.0000  0.9282  0.0000  0.0000  0.0000
  0.0000  0.0000  0.3479  0.0000 -0.0084
 -0.0000  0.0000  0.0000  0.9392  0.0000
  0.0000  0.0000 -0.0084  0.0000  0.3783
 
spin component  2
 
  0.0388  0.0000  0.0000  0.0000  0.0000
  0.0000  0.0454 -0.0000  0.0000 -0.0000
  0.0000 -0.0000  0.4504  0.0000  0.0043
  0.0000  0.0000  0.0000  0.0386  0.0000
  0.0000 -0.0000  0.0043  0.0000  0.4288
 
 occupancies and eigenvectors
 
  o =  0.0386  v =  0.0000  0.0000  0.0000  0.0000  0.0000 -0.0000  0.0000  0.0000  1.0000  0.0000      0.0000  0.0000  0.0000  0.0000  0.0000  0.0000  0.0000  0.0000  0.0000  0.0000
  o =  0.0388  v =  0.0000  0.0000  0.0000  0.0000  0.0000 -1.0000  0.0000  0.0000 -0.0000  0.0000      0.0000  0.0000  0.0000  0.0000  0.0000  0.0000  0.0000  0.0000  0.0000  0.0000
  o =  0.0454  v =  0.0000  0.0000  0.0000  0.0000  0.0000  0.0000  1.0000  0.0000  0.0000  0.0000      0.0000  0.0000  0.0000  0.0000  0.0000  0.0000  0.0000  0.0000  0.0000  0.0000
[...]
 -0.000  -0.001  -0.000   0.000   0.000   0.000  -0.000   0.000   0.000   0.001  -0.001   0.000  -0.000   0.000  -0.000   0.000
  0.000   0.000   0.000   0.000   0.000   0.000   0.000   0.000  -0.003   0.000   0.000   0.000   0.000   0.001   0.000   0.000
 -0.000  -0.000  -0.000  -0.000   0.000  -0.000  -0.000   0.000   0.000  -0.001   0.000   0.000  -0.003   0.000   0.000  -0.000
  0.000   0.000   0.000   0.000  -0.000   0.000   0.000  -0.000   0.000   0.000   0.000  -0.002   0.000  -0.000   0.000   0.000
 -0.000   0.001  -0.000  -0.000   0.000  -0.000   0.000   0.000   0.000  -0.003   0.002   0.000  -0.004   0.000   0.001  -0.001
  0.000   0.000   0.000   0.000  -0.001   0.000   0.000   0.001  -0.004   0.000   0.000   0.004   0.000   0.001   0.000   0.000
  0.000   0.002   0.000  -0.000   0.000  -0.000   0.000   0.000   0.000   0.000  -0.005   0.000   0.001   0.000  -0.000   0.002
  0.000   0.002   0.000  -0.000   0.000  -0.000   0.000   0.000   0.000  -0.002   0.002   0.000   0.000   0.000   0.001  -0.001
  0.000   0.000   0.000   0.000   0.000   0.000   0.000  -0.000   0.005   0.000   0.000   0.000   0.000  -0.002   0.000   0.000
  0.000   0.001   0.000  -0.000   0.000   0.000   0.000   0.000   0.000   0.002  -0.000   0.000   0.005   0.000  -0.001   0.000
  0.000   0.000   0.000   0.000  -0.000   0.000   0.000   0.000  -0.000   0.000   0.000   0.004   0.000   0.000   0.000   0.000


------------------------ aborting loop because EDIFF is reached ----------------------------------------


 


 total charge     
 
# of ion       s       p       d       f       tot
--------------------------------------------------
    1        2.000   5.697   0.484   0.187   8.367
    2        2.001   5.700   0.500   0.195   8.396
    3        2.001   5.698   0.500   0.193   8.392
    4        2.000   5.697   0.484   0.187   8.367
    5        2.001   5.700   0.500   0.195   8.396
    6        2.002   5.698   0.500   0.193   8.393
    7        0.348   0.546   4.868   0.000   5.762
    8        0.333   0.509   4.857   0.000   5.698
    9        0.339   0.524   4.865   0.000   5.728
   10        0.409   0.598   8.323   0.000   9.330
   11        0.403   0.588   8.327   0.000   9.318
   12        0.414   0.613   8.335   0.000   9.362
   13        1.561   3.464   0.000   0.000   5.025
   14        1.563   3.444   0.000   0.000   5.007
   15        1.563   3.457   0.000   0.000   5.020
   16        1.561   3.461   0.000   0.000   5.022
   17        1.558   3.446   0.000   0.000   5.004
   18        1.563   3.451   0.000   0.000   5.014
   19        1.565   3.447   0.000   0.000   5.012
   20        1.562   3.459   0.000   0.000   5.021
   21        1.559   3.456   0.000   0.000   5.015
   22        1.565   3.447   0.000   0.000   5.012
   23        1.562   3.459   0.000   0.000   5.021
   24        1.559   3.456   0.000   0.000   5.014
   25        1.565   3.445   0.000   0.000   5.010
   26        1.566   3.456   0.000   0.000   5.021
   27        1.558   3.454   0.000   0.000   5.012
   28        1.565   3.453   0.000   0.000   5.018
   29        1.557   3.453   0.000   0.000   5.011
   30        1.559   3.464   0.000   0.000   5.022
--------------------------------------------------
tot         42.360  99.738  42.544   1.149 185.790

 


 magnetization (x)
 
# of ion       s       p       d       f       tot
--------------------------------------------------
    1        0.000   0.000   0.004   0.002   0.006
    2        0.001   0.001   0.010   0.005   0.017
    3        0.000   0.001   0.007   0.004   0.012
    4        0.000   0.000   0.004   0.002   0.006
    5        0.001   0.001   0.010   0.005   0.017
    6        0.000   0.001   0.007   0.004   0.012
    7        0.024   0.027   3.341   0.000   3.392
    8        0.022   0.017   3.467   0.000   3.507
    9        0.023   0.022   3.438   0.000   3.483
   10        0.016   0.009   1.584   0.000   1.609
   11        0.013   0.006   1.615   0.000   1.635
   12        0.017   0.013   1.569   0.000   1.599
   13        0.002  -0.023   0.000   0.000  -0.021
   14        0.005  -0.033   0.000   0.000  -0.028
   15        0.005  -0.016   0.000   0.000  -0.011
   16        0.004  -0.023   0.000   0.000  -0.019
   17        0.007  -0.020   0.000   0.000  -0.013
   18        0.005  -0.042   0.000   0.000  -0.037
   19        0.004  -0.057   0.000   0.000  -0.053
   20        0.005  -0.007   0.000   0.000  -0.002
   21        0.006  -0.026   0.000   0.000  -0.020
   22        0.004  -0.057   0.000   0.000  -0.053
   23        0.005  -0.008   0.000   0.000  -0.002
   24        0.006  -0.026   0.000   0.000  -0.020
   25        0.004  -0.059   0.000   0.000  -0.055
   26        0.004  -0.060   0.000   0.000  -0.056
   27        0.006  -0.024   0.000   0.000  -0.018
   28        0.004  -0.057   0.000   0.000  -0.054
   29        0.006  -0.019   0.000   0.000  -0.013
   30        0.007  -0.015   0.000   0.000  -0.008
--------------------------------------------------
tot          0.208  -0.475  15.057   0.022  14.812

 
    CHARGE:  cpu time    0.2022: real time    0.2028
    FORLOC:  cpu time    0.0121: real time    0.0121
    FORNL :  cpu time    1.2656: real time    1.2698
    STRESS:  cpu time    3.7799: real time    3.7915
    FORCOR:  cpu time    0.0896: real time    0.0902
    FORHAR:  cpu time    0.0200: real time    0.0201
    MIXING:  cpu time    0.0106: real time    0.0106
    OFIELD:  cpu time    0.0001: real time    0.0002

  FORCE on cell =-STRESS in cart. coord.  units (eV):
  Direction    XX          YY          ZZ          XY          YZ          ZX
  --------------------------------------------------------------------------------------
  Alpha Z   982.42233   982.42233   982.42233
  Ewald   -5017.90314 -5092.42944 -5313.61550     0.00000    -0.00000     0.00000
  Hartree  1293.28973  1232.63969  1030.11467     0.00000    -0.00002    -0.00000
  E(xc)   -1046.20573 -1046.34414 -1046.47690    -0.00000    -0.00001     0.00000
  Local    -964.63118  -830.73985  -404.42476     0.00000    -0.00025    -0.00000
  n-local   416.66161   416.08717   416.52533     0.55318    -0.01080    -0.01222
  augment   489.06310   489.15131   488.57046     0.00000     0.00009     0.00000
  Kinetic  3847.64890  3848.79821  3847.05256    -1.19047    -0.01837     0.04252
  Fock        0.00000     0.00000     0.00000     0.00000     0.00000     0.00000
  -------------------------------------------------------------------------------------
  Total       0.34563    -0.41470     0.16820     0.00000    -0.00000     0.00000
  in kB       1.57540    -1.89019     0.76667     0.00000    -0.00000     0.00000
  external pressure =        0.15 kB  Pullay stress =        0.00 kB


 VOLUME and BASIS-vectors are now :
 -----------------------------------------------------------------------------
  energy-cutoff  :      520.00
  volume of cell :      351.51
      direct lattice vectors                 reciprocal lattice vectors
     3.875990705  0.000000000  0.000000000     0.257998555  0.000000000  0.000000000
     0.000000000  7.774100921  0.000000000     0.000000000  0.128632238  0.042861309
     0.000000000 -3.887050465 11.665532747     0.000000000 -0.000000000  0.085722617

  length of vectors
     3.875990705  7.774100921 12.296089443     0.257998555  0.135585193  0.085722617


 FORCES acting on ions
    electron-ion (+dipol)            ewald-force                    non-local-force                 convergence-correction
 -----------------------------------------------------------------------------------------------
   -.786E-14 0.703E+02 -.915E+02   0.385E-13 -.696E+02 0.910E+02   0.000E+00 -.696E+00 0.667E+00   -.974E-14 -.555E-02 0.438E-02
   -.893E-14 0.628E+02 -.104E+03   0.261E-14 -.624E+02 0.103E+03   0.000E+00 -.456E+00 0.808E+00   -.745E-14 0.160E-02 0.620E-01
   0.752E-14 0.229E+01 0.196E+03   0.889E-13 -.219E+01 -.195E+03   0.000E+00 -.112E+00 -.152E+01   -.519E-14 -.658E-03 -.687E-01
   -.303E-14 -.703E+02 -.915E+02   -.101E-12 0.696E+02 0.910E+02   0.000E+00 0.696E+00 0.667E+00   -.601E-14 0.555E-02 0.438E-02
   -.932E-14 -.628E+02 -.104E+03   -.247E-13 0.624E+02 0.103E+03   0.000E+00 0.456E+00 0.808E+00   -.965E-14 -.160E-02 0.620E-01
   0.500E-14 -.229E+01 0.196E+03   -.489E-13 0.218E+01 -.195E+03   0.000E+00 0.112E+00 -.152E+01   -.297E-14 0.656E-03 -.687E-01
   0.589E-13 -.443E-04 -.470E+02   -.217E-14 -.559E-05 0.462E+02   0.000E+00 -.343E-09 0.822E+00   0.177E-13 -.707E-07 0.264E-01
   0.499E-13 -.131E-04 0.362E+02   0.313E-13 0.250E-04 -.359E+02   0.000E+00 0.173E-09 -.416E+00   0.252E-13 0.235E-06 -.395E-02
   0.600E-13 -.182E-04 0.131E+02   0.295E-13 0.379E-04 -.129E+02   0.000E+00 0.172E-09 -.412E+00   0.271E-13 0.109E-06 0.119E-02
   0.264E-12 -.943E-04 0.775E+01   -.184E-13 -.240E-05 -.733E+01   0.000E+00 0.147E-09 -.352E+00   0.894E-13 -.770E-06 -.279E-01
   0.291E-12 -.440E-04 -.634E+02   -.680E-13 -.684E-05 0.618E+02   0.000E+00 -.603E-09 0.145E+01   0.504E-13 0.345E-06 0.542E-01
   0.322E-12 -.142E-03 0.557E+02   0.671E-14 -.267E-04 -.544E+02   0.000E+00 0.509E-09 -.122E+01   0.770E-13 -.805E-06 -.590E-01
   0.119E-12 0.940E-03 -.340E+02   0.269E-13 -.371E-04 0.337E+02   0.000E+00 -.623E-10 0.149E+00   0.347E-13 0.899E-06 0.443E-01
   0.123E-12 -.512E-04 -.671E+02   0.378E-13 0.563E-04 0.609E+02   0.000E+00 -.260E-08 0.622E+01   0.274E-13 -.900E-06 -.436E-01
   0.101E-12 0.474E-03 0.961E+02   0.233E-13 0.413E-05 -.899E+02   0.000E+00 0.249E-08 -.597E+01   0.381E-13 0.704E-06 -.182E-01
   0.124E-12 0.955E-03 -.829E+02   -.161E-13 -.569E-04 0.790E+02   0.000E+00 -.167E-08 0.400E+01   0.315E-13 -.148E-07 0.117E-01
   0.120E-12 -.621E-04 -.280E+02   0.342E-13 0.747E-04 0.277E+02   0.000E+00 -.579E-10 0.139E+00   0.301E-13 -.168E-07 0.552E-02
   0.100E-12 0.470E-03 0.112E+03   -.200E-14 0.393E-05 -.107E+03   0.000E+00 0.215E-08 -.516E+01   0.398E-13 0.100E-05 -.797E-03
   0.114E-12 -.118E+02 0.138E+02   0.386E-13 0.120E+02 -.137E+02   0.000E+00 -.189E+00 -.166E+00   0.385E-13 -.132E-01 -.283E-02
   0.109E-12 -.562E+02 -.307E+02   -.134E-13 0.508E+02 0.297E+02   0.000E+00 0.551E+01 0.956E+00   0.417E-13 -.474E-01 0.275E-01
   0.110E-12 -.100E+02 0.167E+02   -.219E-13 0.988E+01 -.160E+02   0.000E+00 0.110E+00 -.635E+00   0.440E-13 -.687E-03 -.237E-01
   0.115E-12 0.118E+02 0.138E+02   -.542E-13 -.120E+02 -.137E+02   0.000E+00 0.189E+00 -.166E+00   0.288E-13 0.132E-01 -.283E-02
   0.106E-12 0.562E+02 -.307E+02   0.105E-13 -.508E+02 0.297E+02   0.000E+00 -.551E+01 0.956E+00   0.276E-13 0.474E-01 0.275E-01
   0.112E-12 0.100E+02 0.167E+02   -.484E-13 -.988E+01 -.160E+02   0.000E+00 -.110E+00 -.635E+00   0.356E-13 0.688E-03 -.237E-01
   -.240E-14 -.925E-05 0.240E+02   -.397E-13 -.461E-04 -.241E+02   0.000E+00 -.308E-10 0.738E-01   0.292E-14 0.297E-06 -.559E-02
   -.113E-14 0.440E-03 -.293E+02   0.161E-13 -.926E-05 0.286E+02   0.000E+00 -.291E-09 0.698E+00   0.384E-14 0.440E-06 0.287E-01
   -.227E-14 0.924E-03 0.289E+01   0.791E-14 0.740E-04 -.183E+01   0.000E+00 0.433E-09 -.104E+01   -.141E-13 0.345E-06 -.203E-01
   -.214E-14 -.924E-05 0.333E+01   0.247E-15 -.378E-04 -.300E+01   0.000E+00 0.146E-09 -.350E+00   -.778E-15 -.284E-06 -.152E-02
   -.533E-14 0.446E-03 -.323E+02   0.653E-13 -.969E-05 0.312E+02   0.000E+00 -.441E-09 0.106E+01   -.157E-15 0.150E-06 0.276E-01
   -.519E-14 0.924E-03 0.315E+02   -.215E-14 0.641E-04 -.312E+02   0.000E+00 0.857E-10 -.205E+00   -.552E-14 0.799E-06 -.272E-01
 -----------------------------------------------------------------------------------------------
   0.236E-11 0.105E-01 0.329E+00   -.285E-14 -.266E-13 0.711E-14   0.000E+00 0.123E-09 -.295E+00   0.650E-12 -.318E-05 -.111E-01
 
 
 POSITION                                       TOTAL-FORCE (eV/Angst)
 -----------------------------------------------------------------------------------
      0.00000      0.06881      3.82034         0.000000      0.021521      0.152429
      0.00000      0.04838      7.69902         0.000000      0.018046      0.090494
      0.00000      3.89632      0.14932         0.000000     -0.010911     -0.211517
      0.00000      3.81824      3.82034         0.000000     -0.021521      0.152429
      0.00000      3.83867      7.69902         0.000000     -0.018046      0.090494
      0.00000     -0.00927      0.14932         0.000000      0.010911     -0.211517
      1.93800      5.83058      5.82210         0.000000     -0.000000      0.053039
      1.93800     -1.94352      9.72639         0.000000      0.000000     -0.044227
      1.93800      1.94353      9.73376         0.000000      0.000000     -0.214753
      1.93800      5.83058      1.95608         0.000000     -0.000000      0.036480
      1.93800      1.94353      5.83452         0.000000      0.000000     -0.015489
      1.93800      1.94352      1.93272         0.000000     -0.000000      0.024340
      1.93800     -1.94353      7.78455         0.000000      0.000000     -0.068091
      1.93800      5.83058      3.94755         0.000000      0.000000     -0.031183
      1.93800      1.94353     11.60782         0.000000     -0.000000      0.180869
      1.93800      1.94352      7.81204         0.000000     -0.000000      0.140256
      1.93800      1.94353      3.89656         0.000000      0.000000     -0.137708
      1.93800     -1.94353     11.61019         0.000000     -0.000000      0.058433
      1.93800      3.88607      9.70101         0.000000      0.004034     -0.018192
      1.93800      3.93687      5.86977         0.000000      0.023100     -0.021174
      1.93800      3.89210      1.92410         0.000000     -0.028240      0.018579
      1.93800      0.00099      9.70101         0.000000     -0.004034     -0.018192
      1.93800     -0.04982      5.86977         0.000000     -0.023100     -0.021174
      1.93800     -0.00505      1.92410         0.000000      0.028240      0.018579
      0.00000     -1.94352      9.70262         0.000000      0.000000     -0.023126
      0.00000     -1.94353      5.87419         0.000000     -0.000000      0.039030
      0.00000      5.83058      1.92224         0.000000      0.000000     -0.001007
      0.00000      1.94353      9.69834         0.000000      0.000000     -0.020728
      0.00000      1.94353      5.86565         0.000000      0.000000     -0.027649
      0.00000      1.94352      1.92854         0.000000     -0.000000      0.030278
 -----------------------------------------------------------------------------------
    total drift:                                0.000000      0.010453      0.022463


--------------------------------------------------------------------------------------------------------



  FREE ENERGIE OF THE ION-ELECTRON SYSTEM (eV)
  ---------------------------------------------------
  free  energy   TOTEN  =      -220.34542306 eV

  energy  without entropy=     -220.34542306  energy(sigma->0) =     -220.34542306
 


--------------------------------------------------------------------------------------------------------


    POTLOK:  cpu time    0.0939: real time    0.0941


--------------------------------------------------------------------------------------------------------


     LOOP+:  cpu time  108.0615: real time  108.4401
    4ORBIT:  cpu time    0.0000: real time    0.0000
 


 total charge     
 
# of ion       s       p       d       f       tot
--------------------------------------------------
    1        2.000   5.697   0.484   0.187   8.367
    2        2.001   5.700   0.500   0.195   8.396
    3        2.001   5.698   0.500   0.193   8.392
    4        2.000   5.697   0.484   0.187   8.367
    5        2.001   5.700   0.500   0.195   8.396
    6        2.002   5.698   0.500   0.193   8.393
    7        0.348   0.546   4.868   0.000   5.762
    8        0.333   0.509   4.857   0.000   5.698
    9        0.339   0.524   4.865   0.000   5.728
   10        0.409   0.598   8.323   0.000   9.330
   11        0.403   0.588   8.327   0.000   9.318
   12        0.414   0.613   8.335   0.000   9.362
   13        1.561   3.464   0.000   0.000   5.025
   14        1.563   3.444   0.000   0.000   5.007
   15        1.563   3.457   0.000   0.000   5.020
   16        1.561   3.461   0.000   0.000   5.022
   17        1.558   3.446   0.000   0.000   5.004
   18        1.563   3.451   0.000   0.000   5.014
   19        1.565   3.447   0.000   0.000   5.012
   20        1.562   3.459   0.000   0.000   5.021
   21        1.559   3.456   0.000   0.000   5.015
   22        1.565   3.447   0.000   0.000   5.012
   23        1.562   3.459   0.000   0.000   5.021
   24        1.559   3.456   0.000   0.000   5.014
   25        1.565   3.445   0.000   0.000   5.010
   26        1.566   3.456   0.000   0.000   5.021
   27        1.558   3.454   0.000   0.000   5.012
   28        1.565   3.453   0.000   0.000   5.018
   29        1.557   3.453   0.000   0.000   5.011
   30        1.559   3.464   0.000   0.000   5.022
--------------------------------------------------
tot         42.360  99.738  42.544   1.149 185.790

 


 magnetization (x)
 
# of ion       s       p       d       f       tot
--------------------------------------------------
    1        0.000   0.000   0.004   0.002   0.006
    2        0.001   0.001   0.010   0.005   0.017
    3        0.000   0.001   0.007   0.004   0.012
    4        0.000   0.000   0.004   0.002   0.006
    5        0.001   0.001   0.010   0.005   0.017
    6        0.000   0.001   0.007   0.004   0.012
    7        0.024   0.027   3.341   0.000   3.392
    8        0.022   0.017   3.467   0.000   3.507
    9        0.023   0.022   3.438   0.000   3.483
   10        0.016   0.009   1.584   0.000   1.609
   11        0.013   0.006   1.615   0.000   1.635
   12        0.017   0.013   1.569   0.000   1.599
   13        0.002  -0.023   0.000   0.000  -0.021
   14        0.005  -0.033   0.000   0.000  -0.028
   15        0.005  -0.016   0.000   0.000  -0.011
   16        0.004  -0.023   0.000   0.000  -0.019
   17        0.007  -0.020   0.000   0.000  -0.013
   18        0.005  -0.042   0.000   0.000  -0.037
   19        0.004  -0.057   0.000   0.000  -0.053
   20        0.005  -0.007   0.000   0.000  -0.002
   21        0.006  -0.026   0.000   0.000  -0.020
   22        0.004  -0.057   0.000   0.000  -0.053
   23        0.005  -0.008   0.000   0.000  -0.002
   24        0.006  -0.026   0.000   0.000  -0.020
   25        0.004  -0.059   0.000   0.000  -0.055
   26        0.004  -0.060   0.000   0.000  -0.056
   27        0.006  -0.024   0.000   0.000  -0.018
   28        0.004  -0.057   0.000   0.000  -0.054
   29        0.006  -0.019   0.000   0.000  -0.013
   30        0.007  -0.015   0.000   0.000  -0.008
--------------------------------------------------
tot          0.208  -0.475  15.057   0.022  14.812

 
 BZINTS: Fermi energy:  7.655589;225.000000 electrons
         Band energy:-332.319731;  BLOECHL correction: -0.163972

 total amount of memory used by VASP MPI-rank0    76815. kBytes
=======================================================================

   base      :      30000. kBytes
   nonlr-proj:       7370. kBytes
   fftplans  :       2870. kBytes
   grid      :       8081. kBytes
   one-center:        294. kBytes
   wavefun   :      28200. kBytes
 
  
  
 General timing and accounting informations for this job:
 ========================================================
  
                  Total CPU time used (sec):      117.398
                            User time (sec):      114.352
                          System time (sec):        3.046
                         Elapsed time (sec):      117.967
  
                   Maximum memory used (kb):      135132.
                   Average memory used (kb):           0.
  
                          Minor page faults:        43147
                          Major page faults:            0
                 Voluntary context switches:         1090
