       N       E                     dE             d eps       ncg     rms          rms(c)
DAV:   1     0.226791708582E+04    0.22679E+04   -0.56228E+04  4992   0.251E+03
DAV:   2     0.716672332394E+03   -0.15512E+04   -0.14094E+04  5296   0.604E+02
DAV:   3     0.115724412469E+03   -0.60095E+03   -0.54608E+03  5336   0.309E+02
DAV:   4    -0.119073504278E+03   -0.23480E+03   -0.22442E+03  7706   0.156E+02
DAV:   5    -0.162394628138E+03   -0.43321E+02   -0.41790E+02  8704   0.803E+01    0.668E+01
RMM:   6    -0.145177115816E+03    0.17218E+02   -0.50113E+02  8159   0.109E+02    0.898E+01
RMM:   7    -0.140542342109E+03    0.46348E+01   -0.90635E+01  7714   0.378E+01    0.369E+01
RMM:   8    -0.138225963442E+03    0.23164E+01   -0.22736E+01  7055   0.302E+01    0.156E+01
RMM:   9    -0.139742351564E+03   -0.15164E+01   -0.13101E+01  7774   0.147E+01    0.774E+00
RMM:  10    -0.140029026511E+03   -0.28667E+00   -0.26704E+00  8406   0.535E+00    0.476E+00
RMM:  11    -0.140200584012E+03   -0.17156E+00   -0.13639E+00  8020   0.455E+00    0.232E+00
RMM:  12    -0.140247587663E+03   -0.47004E-01   -0.37942E-01  7795   0.269E+00    0.178E+00
RMM:  13    -0.140265926009E+03   -0.18338E-01   -0.17204E-01  7730   0.145E+00    0.821E-01
RMM:  14    -0.140275900824E+03   -0.99748E-02   -0.85184E-02  7609   0.987E-01    0.421E-01
RMM:  15    -0.140280866011E+03   -0.49652E-02   -0.42767E-02  6764   0.629E-01    0.200E-01
RMM:  16    -0.140282998888E+03   -0.21329E-02   -0.21322E-02  5396   0.526E-01    0.115E-01
RMM:  17    -0.140284542257E+03   -0.15434E-02   -0.14376E-02  4951   0.409E-01    0.638E-02
RMM:  18    -0.140285445845E+03   -0.90359E-03   -0.95663E-03  4686   0.399E-01
   1 F= -.14028545E+03 E0= -.14028545E+03  d E =0.000000E+00  mag=     7.0001
