       N       E                     dE             d eps       ncg     rms          rms(c)
DAV:   1     0.359997419782E+04    0.36000E+04   -0.80142E+04  7466   0.250E+03
DAV:   2     0.124922246654E+04   -0.23508E+04   -0.21245E+04  7816   0.646E+02
DAV:   3     0.274485230238E+03   -0.97474E+03   -0.87419E+03  7696   0.327E+02
DAV:   4    -0.152324575302E+03   -0.42681E+03   -0.40405E+03 11222   0.178E+02
DAV:   5    -0.243345299653E+03   -0.91021E+02   -0.87804E+02 13002   0.978E+01    0.826E+01
RMM:   6    -0.216311653715E+03    0.27034E+02   -0.71315E+02 11883   0.109E+02    0.103E+02
RMM:   7    -0.217122593125E+03   -0.81094E+00   -0.14901E+02 12304   0.342E+01    0.487E+01
RMM:   8    -0.210517338161E+03    0.66053E+01   -0.53643E+01 10048   0.364E+01    0.223E+01
RMM:   9    -0.213250494530E+03   -0.27332E+01   -0.26793E+01 11464   0.165E+01    0.159E+01
RMM:  10    -0.213319639774E+03   -0.69145E-01   -0.48064E+00 12268   0.656E+00    0.972E+00
RMM:  11    -0.213506899588E+03   -0.18726E+00   -0.24905E+00 12370   0.418E+00    0.507E+00
RMM:  12    -0.213725312679E+03   -0.21841E+00   -0.12365E+00 12697   0.292E+00    0.268E+00
RMM:  13    -0.213773997366E+03   -0.48685E-01   -0.32243E-01 11764   0.182E+00    0.145E+00
RMM:  14    -0.213785866820E+03   -0.11869E-01   -0.12406E-01 11800   0.937E-01    0.988E-01
RMM:  15    -0.213792371553E+03   -0.65047E-02   -0.52500E-02 10833   0.628E-01    0.644E-01
RMM:  16    -0.213794924227E+03   -0.25527E-02   -0.30549E-02  8993   0.524E-01    0.256E-01
RMM:  17    -0.213796597795E+03   -0.16736E-02   -0.23317E-02  8726   0.473E-01    0.200E-01
RMM:  18    -0.213797849582E+03   -0.12518E-02   -0.13461E-02  7482   0.366E-01    0.888E-02
RMM:  19    -0.213798710346E+03   -0.86076E-03   -0.92436E-03  6793   0.333E-01
   1 F= -.21379871E+03 E0= -.21379871E+03  d E =0.000000E+00  mag=    11.9976
