 vasp.5.4.4.18Apr17-6-g9f103f2a35 (build Oct 03 2018 13:58:34) complex          
  
 executed on             LinuxIFC date 2019.06.04  00:56:20
 running on   40 total cores
 distrk:  each k-point on   20 cores,    2 groups
 distr:  one band on NCORES_PER_BAND=  10 cores,    2 groups


--------------------------------------------------------------------------------------------------------


 INCAR:
 POTCAR:    PAW_PBE La 06Sep2000                  
 POTCAR:    PAW_PBE Mn 06Sep2000                  
 POTCAR:    PAW_PBE Ni 02Aug2007                  
 POTCAR:    PAW_PBE O 08Apr2002                   

 ----------------------------------------------------------------------------- 
|                                                                             |
|           W    W    AA    RRRRR   N    N  II  N    N   GGGG   !!!           |
|           W    W   A  A   R    R  NN   N  II  NN   N  G    G  !!!           |
|           W    W  A    A  R    R  N N  N  II  N N  N  G       !!!           |
|           W WW W  AAAAAA  RRRRR   N  N N  II  N  N N  G  GGG   !            |
|           WW  WW  A    A  R   R   N   NN  II  N   NN  G    G                |
|           W    W  A    A  R    R  N    N  II  N    N   GGGG   !!!           |
|                                                                             |
|      You have enabled k-point parallelism (KPAR>1).                         |
|      This developmental code was originally  written by Paul Kent at ORNL,  |
|      and carefully double checked in Vienna.                                |
|      GW as well as linear response parallelism added by Martijn Marsman     |
|      and Georg Kresse.                                                      |
|      Carefully verify results versus KPAR=1.                                |
|      Report problems to Paul Kent and Vienna.                               |
|                                                                             |
 ----------------------------------------------------------------------------- 

 POTCAR:    PAW_PBE La 06Sep2000                  
   VRHFIN =La : [core=Kr4d]                                                     
   LEXCH  = PE                                                                  
   EATOM  =   865.9763 eV,   63.6475 Ry                                         
                                                                                
   TITEL  = PAW_PBE La 06Sep2000                                                
   LULTRA =        F    use ultrasoft PP ?                                      
   IUNSCR =        1    unscreen: 0-lin 1-nonlin 2-no                           
   RPACOR =    2.300    partial core radius                                     
   POMASS =  138.900; ZVAL   =   11.000    mass and valenz                      
   RCORE  =    2.800    outmost cutoff radius                                   
   RWIGS  =    2.900; RWIGS  =    1.535    wigner-seitz radius (au A)           
   ENMAX  =  219.292; ENMIN  =  164.469 eV                                      
   RCLOC  =    1.601    cutoff for local pot                                    
   LCOR   =        T    correct aug charges                                     
   LPAW   =        T    paw PP                                                  
   EAUG   =  583.575                                                            
   DEXC   =    0.000                                                            
   RMAX   =    2.853    core radius for proj-oper                               
   RAUG   =    1.300    factor for augmentation sphere                          
   RDEP   =    2.802    radius for radial grids                                 
   RDEPT  =    2.156    core radius for aug-charge                              
                                                                                
   Atomic configuration                                                         
   14 entries                                                                   
     n  l   j            E        occ.                                          
     1  0  0.50    -38741.0879   2.0000                                         
     2  0  0.50     -6166.6801   2.0000                                         
     2  1  1.50     -5526.1593   6.0000                                         
     3  0  0.50     -1319.0200   2.0000                                         
     3  1  1.50     -1114.5963   6.0000                                         
     3  2  2.50      -821.1793  10.0000                                         
     4  0  0.50      -266.3851   2.0000                                         
     4  1  1.50      -199.9276   6.0000                                         
     4  2  2.50      -103.8239  10.0000                                         
     5  0  0.50       -38.9172   2.0000                                         
     6  0  0.50        -3.6792   2.0000                                         
     5  1  1.50       -22.3948   6.0000                                         
     5  2  2.50        -3.0911   0.9999                                         
     4  3  2.50        -4.3603   0.0001                                         
   Description                                                                  
     l       E           TYP  RCUT    TYP  RCUT                                 
     0    -38.9171645     23  2.800                                             
     0     -3.6792381     23  2.800                                             
     1    -22.3948300     23  2.500                                             
     1     27.2116520     23  2.500                                             
     2     -3.0910934     23  2.500                                             
     2      1.0119135     23  2.500                                             
     3     -4.3602911     23  2.800                                             
     3     -5.7208737     23  2.800                                             
  local pseudopotential read in
  partial core-charges read in
  partial kinetic energy density read in
  atomic valenz-charges read in
  non local Contribution for L=           0  read in
    real space projection operators read in
  non local Contribution for L=           0  read in
    real space projection operators read in
  non local Contribution for L=           1  read in
    real space projection operators read in
  non local Contribution for L=           1  read in
    real space projection operators read in
  non local Contribution for L=           2  read in
    real space projection operators read in
  non local Contribution for L=           2  read in
    real space projection operators read in
  non local Contribution for L=           3  read in
    real space projection operators read in
  non local Contribution for L=           3  read in
    real space projection operators read in
    PAW grid and wavefunctions read in
 
   number of l-projection  operators is LMAX  =           8
   number of lm-projection operators is LMMAX =          32
 
 POTCAR:    PAW_PBE Mn 06Sep2000                  
   VRHFIN =Mn: d6 s1                                                            
   LEXCH  = PE                                                                  
   EATOM  =   416.7541 eV,   30.6306 Ry                                         
                                                                                
   TITEL  = PAW_PBE Mn 06Sep2000                                                
   LULTRA =        F    use ultrasoft PP ?                                      
   IUNSCR =        1    unscreen: 0-lin 1-nonlin 2-no                           
   RPACOR =    2.000    partial core radius                                     
   POMASS =   54.938; ZVAL   =    7.000    mass and valenz                      
   RCORE  =    2.300    outmost cutoff radius                                   
   RWIGS  =    2.500; RWIGS  =    1.323    wigner-seitz radius (au A)           
   ENMAX  =  269.864; ENMIN  =  202.398 eV                                      
   RCLOC  =    1.725    cutoff for local pot                                    
   LCOR   =        T    correct aug charges                                     
   LPAW   =        T    paw PP                                                  
   EAUG   =  500.711                                                            
   DEXC   =    0.000                                                            
   RMAX   =    2.343    core radius for proj-oper                               
   RAUG   =    1.300    factor for augmentation sphere                          
   RDEP   =    2.338    radius for radial grids                                 
   RDEPT  =    1.911    core radius for aug-charge                              
                                                                                
   Atomic configuration                                                         
    9 entries                                                                   
     n  l   j            E        occ.                                          
     1  0  0.50     -6424.8288   2.0000                                         
     2  0  0.50      -739.1154   2.0000                                         
     2  1  1.50      -625.3949   6.0000                                         
     3  0  0.50       -81.6100   2.0000                                         
     3  1  1.50       -50.4667   6.0000                                         
     3  2  2.50        -3.3745   6.0000                                         
     4  0  0.50        -4.1331   1.0000                                         
     4  1  0.50        -4.0817   0.0000                                         
     4  3  2.50        -1.3606   0.0000                                         
   Description                                                                  
     l       E           TYP  RCUT    TYP  RCUT                                 
     2     -3.3744664     23  2.300                                             
     2     -4.7350490     23  2.300                                             
     0     -4.1331408     23  2.300                                             
     0      7.6656614     23  2.300                                             
     1     -2.7211652     23  2.300                                             
     1     20.4087390     23  2.300                                             
  local pseudopotential read in
  partial core-charges read in
  partial kinetic energy density read in
  atomic valenz-charges read in
  non local Contribution for L=           2  read in
    real space projection operators read in
  non local Contribution for L=           2  read in
    real space projection operators read in
  non local Contribution for L=           0  read in
    real space projection operators read in
  non local Contribution for L=           0  read in
    real space projection operators read in
  non local Contribution for L=           1  read in
    real space projection operators read in
  non local Contribution for L=           1  read in
    real space projection operators read in
    PAW grid and wavefunctions read in
 
   number of l-projection  operators is LMAX  =           6
   number of lm-projection operators is LMMAX =          18
 
 POTCAR:    PAW_PBE Ni 02Aug2007                  
   VRHFIN =Ni:                                                                  
   LEXCH  = PE                                                                  
   EATOM  =  1077.6739 eV,   79.2068 Ry                                         
                                                                                
   TITEL  = PAW_PBE Ni 02Aug2007                                                
   LULTRA =        F    use ultrasoft PP ?                                      
   IUNSCR =        1    unscreen: 0-lin 1-nonlin 2-no                           
   RPACOR =    2.000    partial core radius                                     
   POMASS =   58.690; ZVAL   =   10.000    mass and valenz                      
   RCORE  =    2.300    outmost cutoff radius                                   
   RWIGS  =    2.430; RWIGS  =    1.286    wigner-seitz radius (au A)           
   ENMAX  =  269.532; ENMIN  =  202.149 eV                                      
   RCLOC  =    1.201    cutoff for local pot                                    
   LCOR   =        T    correct aug charges                                     
   LPAW   =        T    paw PP                                                  
   EAUG   =  544.565                                                            
   DEXC   =    0.000                                                            
   RMAX   =    2.357    core radius for proj-oper                               
   RAUG   =    1.300    factor for augmentation sphere                          
   RDEP   =    2.390    radius for radial grids                                 
   RDEPT  =    1.838    core radius for aug-charge                              
                                                                                
   Atomic configuration                                                         
    9 entries                                                                   
     n  l   j            E        occ.                                          
     1  0  0.50     -8206.4253   2.0000                                         
     2  0  0.50      -976.1748   2.0000                                         
     2  1  1.50      -839.0571   6.0000                                         
     3  0  0.50      -105.9991   2.0000                                         
     3  1  1.50       -66.4603   6.0000                                         
     3  2  2.50        -4.6458   9.0000                                         
     4  0  0.50        -4.4926   1.0000                                         
     4  1  1.50        -4.0817   0.0000                                         
     4  3  2.50        -1.3606   0.0000                                         
   Description                                                                  
     l       E           TYP  RCUT    TYP  RCUT                                 
     2     -4.6457903     23  2.300                                             
     2     -6.0063729     23  2.300                                             
     0     -4.4925590     23  2.300                                             
     0      5.0102601     23  2.300                                             
     1     -2.7211652     23  2.300                                             
     1     16.5183231     23  2.300                                             
  local pseudopotential read in
  partial core-charges read in
  partial kinetic energy density read in
  atomic valenz-charges read in
  non local Contribution for L=           2  read in
    real space projection operators read in
  non local Contribution for L=           2  read in
    real space projection operators read in
  non local Contribution for L=           0  read in
    real space projection operators read in
  non local Contribution for L=           0  read in
    real space projection operators read in
  non local Contribution for L=           1  read in
    real space projection operators read in
  non local Contribution for L=           1  read in
    real space projection operators read in
    PAW grid and wavefunctions read in
 
   number of l-projection  operators is LMAX  =           6
   number of lm-projection operators is LMMAX =          18
 
 POTCAR:    PAW_PBE O 08Apr2002                   
   VRHFIN =O: s2p4                                                              
   LEXCH  = PE                                                                  
   EATOM  =   432.3788 eV,   31.7789 Ry                                         
                                                                                
   TITEL  = PAW_PBE O 08Apr2002                                                 
   LULTRA =        F    use ultrasoft PP ?                                      
   IUNSCR =        1    unscreen: 0-lin 1-nonlin 2-no                           
   RPACOR =    1.200    partial core radius                                     
   POMASS =   16.000; ZVAL   =    6.000    mass and valenz                      
   RCORE  =    1.520    outmost cutoff radius                                   
   RWIGS  =    1.550; RWIGS  =    0.820    wigner-seitz radius (au A)           
   ENMAX  =  400.000; ENMIN  =  300.000 eV                                      
   ICORE  =        2    local potential                                         
   LCOR   =        T    correct aug charges                                     
   LPAW   =        T    paw PP                                                  
   EAUG   =  605.392                                                            
   DEXC   =    0.000                                                            
   RMAX   =    1.553    core radius for proj-oper                               
   RAUG   =    1.300    factor for augmentation sphere                          
   RDEP   =    1.550    radius for radial grids                                 
   RDEPT  =    1.329    core radius for aug-charge                              
                                                                                
   Atomic configuration                                                         
    4 entries                                                                   
     n  l   j            E        occ.                                          
     1  0  0.50      -514.6923   2.0000                                         
     2  0  0.50       -23.9615   2.0000                                         
     2  1  0.50        -9.0305   4.0000                                         
     3  2  1.50        -9.5241   0.0000                                         
   Description                                                                  
     l       E           TYP  RCUT    TYP  RCUT                                 
     0    -23.9615318     23  1.200                                             
     0     -9.5240782     23  1.200                                             
     1     -9.0304911     23  1.520                                             
     1      8.1634956     23  1.520                                             
     2     -9.5240782      7  1.500                                             
  local pseudopotential read in
  partial core-charges read in
  partial kinetic energy density read in
  kinetic energy density of atom read in
  atomic valenz-charges read in
  non local Contribution for L=           0  read in
    real space projection operators read in
  non local Contribution for L=           0  read in
    real space projection operators read in
  non local Contribution for L=           1  read in
    real space projection operators read in
  non local Contribution for L=           1  read in
    real space projection operators read in
    PAW grid and wavefunctions read in
 
   number of l-projection  operators is LMAX  =           4
   number of lm-projection operators is LMMAX =           8
 
 Optimization of the real space projectors (new method)

 maximal supplied QI-value         = 13.42
 optimisation between [QCUT,QGAM] = [ 11.67, 23.35] = [ 38.16,152.62] Ry 
 Optimized for a Real-space Cutoff    1.63 Angstroem

   l    n(q)    QCUT    max X(q) W(low)/X(q) W(high)/X(q)  e(spline) 
   0     11    11.673    13.882    0.27E-04    0.79E-05    0.11E-06
   0     11    11.673    12.184    0.39E-04    0.13E-04    0.19E-06
   1     11    11.673     4.523    0.73E-05    0.76E-05    0.12E-06
   1     11    11.673     4.424    0.87E-05    0.13E-04    0.19E-06
   2     10    11.673    52.481    0.65E-04    0.36E-04    0.18E-06
   2     10    11.673    38.501    0.61E-04    0.33E-04    0.17E-06
   3     10    11.673    65.631    0.17E-03    0.14E-03    0.37E-06
   3     10    11.673    56.854    0.17E-03    0.14E-03    0.37E-06
 Optimization of the real space projectors (new method)

 maximal supplied QI-value         = 16.25
 optimisation between [QCUT,QGAM] = [ 11.54, 23.24] = [ 37.28,151.24] Ry 
 Optimized for a Real-space Cutoff    1.53 Angstroem

   l    n(q)    QCUT    max X(q) W(low)/X(q) W(high)/X(q)  e(spline) 
   2     10    11.539   110.144    0.12E-03    0.13E-03    0.25E-06
   2     10    11.539   103.200    0.12E-03    0.13E-03    0.25E-06
   0     11    11.539    68.437    0.46E-04    0.21E-04    0.32E-06
   0     11    11.539    33.971    0.37E-04    0.19E-04    0.29E-06
   1     10    11.539    17.065    0.51E-04    0.22E-04    0.13E-06
   1     10    11.539    12.540    0.41E-04    0.18E-04    0.11E-06
 Optimization of the real space projectors (new method)

 maximal supplied QI-value         = 16.25
 optimisation between [QCUT,QGAM] = [ 11.54, 23.24] = [ 37.28,151.24] Ry 
 Optimized for a Real-space Cutoff    1.45 Angstroem

   l    n(q)    QCUT    max X(q) W(low)/X(q) W(high)/X(q)  e(spline) 
   2      9    11.539    60.317    0.19E-03    0.47E-04    0.16E-06
   2      9    11.539    55.921    0.19E-03    0.48E-04    0.16E-06
   0     10    11.539    51.690    0.80E-04    0.50E-04    0.24E-06
   0     10    11.539    30.015    0.73E-04    0.45E-04    0.22E-06
   1     10    11.539    18.849    0.87E-04    0.16E-03    0.71E-07
   1     10    11.539    14.624    0.73E-04    0.13E-03    0.64E-07
 Optimization of the real space projectors (new method)

 maximal supplied QI-value         = 24.76
 optimisation between [QCUT,QGAM] = [ 11.64, 23.27] = [ 37.91,151.63] Ry 
 Optimized for a Real-space Cutoff    1.14 Angstroem

   l    n(q)    QCUT    max X(q) W(low)/X(q) W(high)/X(q)  e(spline) 
   0      8    11.635    20.381    0.10E-03    0.33E-03    0.24E-06
   0      8    11.635    15.268    0.11E-03    0.35E-03    0.26E-06
   1      7    11.635     5.964    0.24E-03    0.31E-03    0.30E-06
   1      7    11.635     5.382    0.22E-03    0.25E-03    0.26E-06
  PAW_PBE La 06Sep2000                  :
 energy of atom  1       EATOM= -865.9763
 kinetic energy error for atom=    0.0009 (will be added to EATOM!!)
  PAW_PBE Mn 06Sep2000                  :
 energy of atom  2       EATOM= -416.7541
 kinetic energy error for atom=    0.0024 (will be added to EATOM!!)
  PAW_PBE Ni 02Aug2007                  :
 energy of atom  3       EATOM=-1077.6739
 kinetic energy error for atom=    0.0030 (will be added to EATOM!!)
  PAW_PBE O 08Apr2002                   :
 energy of atom  4       EATOM= -432.3788
 kinetic energy error for atom=    0.0208 (will be added to EATOM!!)
 
 
 POSCAR: SCEL6_1_1_6_0_0_0/2                     
  positions in direct lattice
  velocities in cartesian coordinates
 exchange correlation table for  LEXCH =        8
   RHO(1)=    0.500       N(1)  =     2000
   RHO(2)=  100.500       N(2)  =     4000
 


--------------------------------------------------------------------------------------------------------


 ion  position               nearest neighbor table
   1  0.000  0.000  0.163-  24 2.72  30 2.72  30 2.72  24 2.72  17 2.75  17 2.75  17 2.75  17 2.75
                            29 2.82  23 2.82  29 2.82  23 2.82  12 3.33  12 3.33  12 3.33  12 3.33
   2  0.000  0.000  0.337-  22 2.72  28 2.72  28 2.72  22 2.72  16 2.75  16 2.75  16 2.75  16 2.75
                            23 2.82  29 2.82  23 2.82  29 2.82  11 3.33  11 3.33  11 3.33  11 3.33
   3  0.000  0.000  0.491-  22 2.61  28 2.61  28 2.61  22 2.61  15 2.76  15 2.76  15 2.76  15 2.76
                            11 3.27  11 3.27  11 3.27  11 3.27   2 3.64
   4  0.000  0.000  0.664-  21 2.68  27 2.68  27 2.68  21 2.68  14 2.75  14 2.75  14 2.75  14 2.75
                            26 2.81  20 2.81  26 2.81  20 2.81   9 3.36   9 3.36   9 3.36   9 3.36
   5  0.000  0.000  0.836-  19 2.68  25 2.68  25 2.68  19 2.68  13 2.75  13 2.75  13 2.75  13 2.75
                            20 2.81  26 2.81  20 2.81  26 2.81   8 3.36   8 3.36   8 3.36   8 3.36
   6  0.000  0.000  0.009-  24 2.61  30 2.61  30 2.61  24 2.61  18 2.76  18 2.76  18 2.76  18 2.76
                            12 3.27  12 3.27  12 3.27  12 3.27   1 3.64
   7  0.500  0.500  0.750-  20 1.94  26 1.94  20 1.94  26 1.94  13 2.02  14 2.02   4 3.41   5 3.41
                             4 3.41   4 3.41   5 3.41   5 3.41   4 3.41   5 3.41
   8  0.500  0.500  0.918-  18 1.90  13 1.94  19 1.95  25 1.95  19 1.95  25 1.95   5 3.36   5 3.36
                             5 3.36   5 3.36
   9  0.500  0.500  0.582-  15 1.90  14 1.94  21 1.95  27 1.95  21 1.95  27 1.95   4 3.36   4 3.36
                             4 3.36   4 3.36
  10  0.500  0.500  0.250-  16 1.91  17 1.91  23 1.94  29 1.94  23 1.94  29 1.94   1 3.43   2 3.43
                             1 3.43   1 3.43   2 3.43   2 3.43   1 3.43   2 3.43
  11  0.500  0.500  0.416-  22 1.94  28 1.94  22 1.94  28 1.94  16 2.02  15 2.02   3 3.27   3 3.27
                             3 3.27   3 3.27   2 3.33   2 3.33   2 3.33   2 3.33
  12  0.500  0.500  0.084-  24 1.94  30 1.94  24 1.94  30 1.94  17 2.02  18 2.02   6 3.27   6 3.27
                             6 3.27   6 3.27   1 3.33   1 3.33   1 3.33   1 3.33
  13  0.500  0.500  0.835-   8 1.94   7 2.02   5 2.75   5 2.75   5 2.75   5 2.75
  14  0.500  0.500  0.665-   9 1.94   7 2.02   4 2.75   4 2.75   4 2.75   4 2.75
  15  0.500  0.500  0.502-   9 1.90  11 2.02   3 2.76   3 2.76   3 2.76   3 2.76
  16  0.500  0.500  0.331-  10 1.91  11 2.02   2 2.75   2 2.75   2 2.75   2 2.75
  17  0.500  0.500  0.169-  10 1.91  12 2.02   1 2.75   1 2.75   1 2.75   1 2.75
  18  0.500  0.500  0.998-   8 1.90  12 2.02   6 2.76   6 2.76   6 2.76   6 2.76
  19  0.500  0.000  0.914-   8 1.95   8 1.95   5 2.68   5 2.68
  20  0.500  0.000  0.750-   7 1.94   7 1.94   4 2.81   5 2.81   4 2.81   5 2.81
  21  0.500  0.000  0.586-   9 1.95   9 1.95   4 2.68   4 2.68
  22  0.500  0.000  0.417-  11 1.94  11 1.94   3 2.61   3 2.61   2 2.72   2 2.72
  23  0.500  0.000  0.250-  10 1.94  10 1.94   1 2.82   2 2.82   1 2.82   2 2.82
  24  0.500  0.000  0.083-  12 1.94  12 1.94   6 2.61   6 2.61   1 2.72   1 2.72
  25  0.000  0.500  0.914-   8 1.95   8 1.95   5 2.68   5 2.68
  26  0.000  0.500  0.750-   7 1.94   7 1.94   4 2.81   4 2.81   5 2.81   5 2.81
  27  0.000  0.500  0.586-   9 1.95   9 1.95   4 2.68   4 2.68
  28  0.000  0.500  0.417-  11 1.94  11 1.94   3 2.61   3 2.61   2 2.72   2 2.72
  29  0.000  0.500  0.250-  10 1.94  10 1.94   1 2.82   1 2.82   2 2.82   2 2.82
  30  0.000  0.500  0.083-  12 1.94  12 1.94   6 2.61   6 2.61   1 2.72   1 2.72
 
  LATTYP: Found a simple tetragonal cell.
 ALAT       =     3.8870438861
 C/A-ratio  =     6.0741914926
  
  Lattice vectors:
  
 A1 = (   3.8870438861,   0.0000000000,   0.0000000000)
 A2 = (   0.0000000000,   3.8870438861,   0.0000000000)
 A3 = (   0.0000000000,   0.0000000000,  23.6106489047)


Analysis of symmetry for initial positions (statically):
=====================================================================
 Subroutine PRICEL returns:
 Original cell was already a primitive cell.
 

 Routine SETGRP: Setting up the symmetry group for a 
 simple tetragonal supercell.


 Subroutine GETGRP returns: Found 16 space group operations
 (whereof  8 operations were pure point group operations)
 out of a pool of 16 trial point group operations.


The static configuration has the point symmetry C_4v.
 The point group associated with its full space group is D_4h.


Analysis of symmetry for dynamics (positions and initial velocities):
=====================================================================
 Subroutine PRICEL returns:
 Original cell was already a primitive cell.
 

 Routine SETGRP: Setting up the symmetry group for a 
 simple tetragonal supercell.


 Subroutine GETGRP returns: Found 16 space group operations
 (whereof  8 operations were pure point group operations)
 out of a pool of 16 trial point group operations.


The dynamic configuration has the point symmetry C_4v.
 The point group associated with its full space group is D_4h.


Analysis of structural, dynamic, and magnetic symmetry:
=====================================================================
 Subroutine PRICEL returns:
 Original cell was already a primitive cell.
 

 Routine SETGRP: Setting up the symmetry group for a 
 simple tetragonal supercell.


 Subroutine GETGRP returns: Found 16 space group operations
 (whereof  8 operations were pure point group operations)
 out of a pool of 16 trial point group operations.


The magnetic configuration has the point symmetry C_4v.
 The point group associated with its full space group is D_4h.


 Subroutine INISYM returns: Found 16 space group operations
 (whereof  8 operations are pure point group operations),
 and found     1 'primitive' translations

 
 
 KPOINTS: Automatic mesh                          

Automatic generation of k-mesh.
 generate k-points for:    5    5    1
Space group operators:
 irot       det(A)        alpha          n_x          n_y          n_z        tau_x        tau_y        tau_z
    1     1.000000     0.000000     1.000000     0.000000     0.000000     0.000000     0.000000     0.000000
    2     1.000000    90.000000     0.000000     0.000000    -1.000000     0.000000     0.000000     0.000000
    3     1.000000   179.999999     0.000000     0.000000     1.000000     0.000000     0.000000     0.000000
    4     1.000000    90.000000     0.000000     0.000000     1.000000     0.000000     0.000000     0.000000
    5    -1.000000   180.000000     0.000000     1.000000     0.000000     0.000000     0.000000     0.000000
    6    -1.000000   180.000000     0.707107     0.707107     0.000000     0.000000     0.000000     0.000000
    7    -1.000000   180.000000     1.000000     0.000000     0.000000     0.000000     0.000000     0.000000
    8    -1.000000   180.000000     0.707107    -0.707107     0.000000     0.000000     0.000000     0.000000
    9    -1.000000     0.000000     1.000000     0.000000     0.000000     0.000000     0.000000     0.500000
   10    -1.000000    90.000000     0.000000     0.000000    -1.000000     0.000000     0.000000     0.500000
   11    -1.000000   179.999999     0.000000     0.000000     1.000000     0.000000     0.000000     0.500000
   12    -1.000000    90.000000     0.000000     0.000000     1.000000     0.000000     0.000000     0.500000
   13     1.000000   180.000000     0.000000     1.000000     0.000000     0.000000     0.000000     0.500000
   14     1.000000   180.000000     0.707107     0.707107     0.000000     0.000000     0.000000     0.500000
   15     1.000000   180.000000     1.000000     0.000000     0.000000     0.000000     0.000000     0.500000
   16     1.000000   180.000000     0.707107    -0.707107     0.000000     0.000000     0.000000     0.500000
 
 Subroutine IBZKPT returns following result:
 ===========================================
 
 Found      6 irreducible k-points:
 
 Following reciprocal coordinates:
            Coordinates               Weight
  0.000000  0.000000  0.000000      1.000000
  0.200000  0.000000  0.000000      4.000000
  0.400000  0.000000  0.000000      4.000000
  0.200000  0.200000  0.000000      4.000000
  0.400000  0.200000  0.000000      8.000000
  0.400000  0.400000  0.000000      4.000000
 
 Following cartesian coordinates:
            Coordinates               Weight
  0.000000  0.000000  0.000000      1.000000
  0.051453  0.000000  0.000000      4.000000
  0.102906  0.000000  0.000000      4.000000
  0.051453  0.051453  0.000000      4.000000
  0.102906  0.051453  0.000000      8.000000
  0.102906  0.102906  0.000000      4.000000
 
 TETIRR: Found     31 inequivalent tetrahedra from      150


--------------------------------------------------------------------------------------------------------




 Dimension of arrays:
   k-points           NKPTS =      6   k-points in BZ     NKDIM =      6   number of bands    NBANDS=    144
   number of dos      NEDOS =    301   number of ions     NIONS =     30
   non local maximal  LDIM  =      8   non local SUM 2l+1 LMDIM =     32
   total plane-waves  NPLWV = 162000
   max r-space proj   IRMAX =   8245   max aug-charges    IRDMAX=  23926
   dimension x,y,z NGX =    30 NGY =   30 NGZ =  180
   dimension x,y,z NGXF=    60 NGYF=   60 NGZF=  360
   support grid    NGXF=    60 NGYF=   60 NGZF=  360
   ions per type =               6   4   2  18
   NGX,Y,Z   is equivalent  to a cutoff of  12.83, 12.83, 12.67 a.u.
   NGXF,Y,Z  is equivalent  to a cutoff of  25.66, 25.66, 25.35 a.u.

 SYSTEM =  final                                   
 POSCAR =  SCEL6_1_1_6_0_0_0/2                     

 Startparameter for this run:
   NWRITE =      2    write-flag & timer
   PREC   = accura    normal or accurate (medium, high low for compatibility)
   ISTART =      0    job   : 0-new  1-cont  2-samecut
   ICHARG =      1    charge: 1-file 2-atom 10-const
   ISPIN  =      2    spin polarized calculation?
   LNONCOLLINEAR =      F non collinear calculations
   LSORBIT =      F    spin-orbit coupling
   INIWAV =      1    electr: 0-lowe 1-rand  2-diag
   LASPH  =      F    aspherical Exc in radial PAW
   METAGGA=      F    non-selfconsistent MetaGGA calc.

 Electronic Relaxation 1
   ENCUT  =  520.0 eV  38.22 Ry    6.18 a.u.   7.23  7.23 43.90*2*pi/ulx,y,z
   ENINI  =  520.0     initial cutoff
   ENAUG  =  605.4 eV  augmentation charge cutoff
   NELM   =    100;   NELMIN=  2; NELMDL= -5     # of ELM steps 
   EDIFF  = 0.1E-02   stopping-criterion for ELM
   LREAL  =      T    real-space projection
   NLSPLINE    = F    spline interpolate recip. space projectors
   LCOMPAT=      F    compatible to vasp.4.4
   GGA_COMPAT  = T    GGA compatible to vasp.4.4-vasp.4.6
   LMAXPAW     = -100 max onsite density
   LMAXMIX     =    6 max onsite mixed and CHGCAR
   VOSKOWN=      0    Vosko Wilk Nusair interpolation
   ROPT   =   -0.00025  -0.00025  -0.00025  -0.00025
 Ionic relaxation
   EDIFFG = 0.1E-01   stopping-criterion for IOM
   NSW    =      0    number of steps for IOM
   NBLOCK =      1;   KBLOCK =      1    inner block; outer block 
   IBRION =     -1    ionic relax: 0-MD 1-quasi-New 2-CG
   NFREE  =      0    steps in history (QN), initial steepest desc. (CG)
   ISIF   =      2    stress and relaxation
   IWAVPR =     10    prediction:  0-non 1-charg 2-wave 3-comb
   ISYM   =      2    0-nonsym 1-usesym 2-fastsym
   LCORR  =      T    Harris-Foulkes like correction to forces

   POTIM  = 0.5000    time-step for ionic-motion
   TEIN   =    0.0    initial temperature
   TEBEG  =    0.0;   TEEND  =   0.0 temperature during run
   SMASS  =  -3.00    Nose mass-parameter (am)
   estimated Nose-frequenzy (Omega)   =  0.10E-29 period in steps =****** mass=  -0.345E-27a.u.
   SCALEE = 1.0000    scale energy and forces
   NPACO  =    256;   APACO  = 16.0  distance and # of slots for P.C.
   PSTRESS=    0.0 pullay stress

  Mass of Ions in am
   POMASS = 138.90 54.94 58.69 16.00
  Ionic Valenz
   ZVAL   =  11.00  7.00 10.00  6.00
  Atomic Wigner-Seitz radii
   RWIGS  =  -1.00 -1.00 -1.00 -1.00
  virtual crystal weights 
   VCA    =   1.00  1.00  1.00  1.00
   NELECT =     222.0000    total number of electrons
   NUPDOWN=      -1.0000    fix difference up-down

 DOS related values:
   EMIN   =  10.00;   EMAX   =-10.00  energy-range for DOS
   EFERMI =   0.00
   ISMEAR =    -5;   SIGMA  =   0.05  broadening in eV -4-tet -1-fermi 0-gaus

 Electronic relaxation 2 (details)
   IALGO  =     68    algorithm
   LDIAG  =      T    sub-space diagonalisation (order eigenvalues)
   LSUBROT=      F    optimize rotation matrix (better conditioning)
   TURBO    =      0    0=normal 1=particle mesh
   IRESTART =      0    0=no restart 2=restart with 2 vectors
   NREBOOT  =      0    no. of reboots
   NMIN     =      0    reboot dimension
   EREF     =   0.00    reference energy to select bands
   IMIX   =      4    mixing-type and parameters
     AMIX     =   0.40;   BMIX     =  1.00
     AMIX_MAG =   1.60;   BMIX_MAG =  1.00
     AMIN     =   0.10
     WC   =   100.;   INIMIX=   1;  MIXPRE=   1;  MAXMIX= -45

 Intra band minimization:
   WEIMIN = 0.0000     energy-eigenvalue tresh-hold
   EBREAK =  0.17E-05  absolut break condition
   DEPER  =   0.30     relativ break condition  

   TIME   =   0.40     timestep for ELM

  volume/ion in A,a.u.               =      11.89        80.25
  Fermi-wavevector in a.u.,A,eV,Ry     =   1.397688  2.641247 26.579411  1.953532
  Thomas-Fermi vector in A             =   2.520920
 
 Write flags
   LWAVE        =      F    write WAVECAR
   LDOWNSAMPLE  =      F    k-point downsampling of WAVECAR
   LCHARG       =      T    write CHGCAR
   LVTOT        =      F    write LOCPOT, total local potential
   LVHAR        =      F    write LOCPOT, Hartree potential only
   LELF         =      F    write electronic localiz. function (ELF)
   LORBIT       =     11    0 simple, 1 ext, 2 COOP (PROOUT), +10 PAW based schemes


 Dipole corrections
   LMONO  =      F    monopole corrections only (constant potential shift)
   LDIPOL =      F    correct potential (dipole corrections)
   IDIPOL =      0    1-x, 2-y, 3-z, 4-all directions 
   EPSILON=  1.0000000 bulk dielectric constant

 LDA+U is selected, type is set to LDAUTYPE =  2
   angular momentum for each species LDAUL =     0    2    2    0
   U (eV)           for each species LDAUU =   0.0  3.9  6.2  0.0
   J (eV)           for each species LDAUJ =   0.0  0.0  0.0  0.0
 Exchange correlation treatment:
   GGA     =    --    GGA type
   LEXCH   =     8    internal setting for exchange type
   VOSKOWN=      0    Vosko Wilk Nusair interpolation
   LHFCALC =     F    Hartree Fock is set to
   LHFONE  =     F    Hartree Fock one center treatment
   AEXX    =    0.0000 exact exchange contribution

 Linear response parameters
   LEPSILON=     F    determine dielectric tensor
   LRPA    =     F    only Hartree local field effects (RPA)
   LNABLA  =     F    use nabla operator in PAW spheres
   LVEL    =     F    velocity operator in full k-point grid
   LINTERFAST=   F  fast interpolation
   KINTER  =     0    interpolate to denser k-point grid
   CSHIFT  =0.1000    complex shift for real part using Kramers Kronig
   OMEGAMAX=  -1.0    maximum frequency
   DEG_THRESHOLD= 0.2000000E-02 threshold for treating states as degnerate
   RTIME   =   -0.100 relaxation time in fs
  (WPLASMAI=    0.000 imaginary part of plasma frequency in eV, 0.658/RTIME)
   DFIELD  = 0.0000000 0.0000000 0.0000000 field for delta impulse in time
 
 Orbital magnetization related:
   ORBITALMAG=     F  switch on orbital magnetization
   LCHIMAG   =     F  perturbation theory with respect to B field
   DQ        =  0.001000  dq finite difference perturbation B field
   LLRAUG    =     F  two centre corrections for induced B field



--------------------------------------------------------------------------------------------------------


 Static calculation
 charge density and potential will be updated during run
 spin polarized calculation
 RMM-DIIS sequential band-by-band and
  variant of blocked Davidson during initial phase
 perform sub-space diagonalisation
    before iterative eigenvector-optimisation
 modified Broyden-mixing scheme, WC =      100.0
 initial mixing is a Kerker type mixing with AMIX =  0.4000 and BMIX =      1.0000
 Hartree-type preconditioning will be used
 using additional bands           33
 real space projection scheme for non local part
 use partial core corrections
 calculate Harris-corrections to forces 
   (improved forces if not selfconsistent)
 use gradient corrections 
 use of overlap-Matrix (Vanderbilt PP)
 Fermi weights with tetrahedron method with Bloechl corrections


--------------------------------------------------------------------------------------------------------


  energy-cutoff  :      520.00
  volume of cell :      356.74
      direct lattice vectors                 reciprocal lattice vectors
     3.887043886  0.000000000  0.000000000     0.257264911  0.000000000  0.000000000
     0.000000000  3.887043886  0.000000000     0.000000000  0.257264911  0.000000000
     0.000000000  0.000000000 23.610648905     0.000000000  0.000000000  0.042353770

  length of vectors
     3.887043886  3.887043886 23.610648905     0.257264911  0.257264911  0.042353770


 
 k-points in units of 2pi/SCALE and weight: Automatic mesh                          
   0.00000000  0.00000000  0.00000000       0.040
   0.05145298  0.00000000  0.00000000       0.160
   0.10290596  0.00000000  0.00000000       0.160
   0.05145298  0.05145298  0.00000000       0.160
   0.10290596  0.05145298  0.00000000       0.320
   0.10290596  0.10290596  0.00000000       0.160
 
 k-points in reciprocal lattice and weights: Automatic mesh                          
   0.00000000  0.00000000  0.00000000       0.040
   0.20000000  0.00000000  0.00000000       0.160
   0.40000000  0.00000000  0.00000000       0.160
   0.20000000  0.20000000  0.00000000       0.160
   0.40000000  0.20000000  0.00000000       0.320
   0.40000000  0.40000000  0.00000000       0.160
 
 position of ions in fractional coordinates (direct lattice) 
   0.00000000  0.00000000  0.16319333
   0.00000000  0.00000000  0.33680667
   0.00000000  0.00000000  0.49091827
   0.00000000  0.00000000  0.66419591
   0.00000000  0.00000000  0.83580409
   0.00000000  0.00000000  0.00908173
   0.50000000  0.50000000  0.75000000
   0.50000000  0.50000000  0.91767760
   0.50000000  0.50000000  0.58232240
   0.50000000  0.50000000  0.25000000
   0.50000000  0.50000000  0.41623628
   0.50000000  0.50000000  0.08376372
   0.50000000  0.50000000  0.83547859
   0.50000000  0.50000000  0.66452141
   0.50000000  0.50000000  0.50187315
   0.50000000  0.50000000  0.33081863
   0.50000000  0.50000000  0.16918137
   0.50000000  0.50000000  0.99812685
   0.50000000  0.00000000  0.91403748
   0.50000000  0.00000000  0.75000000
   0.50000000  0.00000000  0.58596252
   0.50000000  0.00000000  0.41721833
   0.50000000  0.00000000  0.25000000
   0.50000000  0.00000000  0.08278167
   0.00000000  0.50000000  0.91403748
   0.00000000  0.50000000  0.75000000
   0.00000000  0.50000000  0.58596252
   0.00000000  0.50000000  0.41721833
   0.00000000  0.50000000  0.25000000
   0.00000000  0.50000000  0.08278167
 
 position of ions in cartesian coordinates  (Angst):
   0.00000000  0.00000000  3.85310040
   0.00000000  0.00000000  7.95222405
   0.00000000  0.00000000 11.59089890
   0.00000000  0.00000000 15.68209641
   0.00000000  0.00000000 19.73387695
   0.00000000  0.00000000  0.21442555
   1.94352194  1.94352194 17.70798668
   1.94352194  1.94352194 21.66696363
   1.94352194  1.94352194 13.74900973
   1.94352194  1.94352194  5.90266223
   1.94352194  1.94352194  9.82760867
   1.94352194  1.94352194  1.97771578
   1.94352194  1.94352194 19.72619163
   1.94352194  1.94352194 15.68978172
   1.94352194  1.94352194 11.84955066
   1.94352194  1.94352194  7.81084251
   1.94352194  1.94352194  3.99448194
   1.94352194  1.94352194 23.56642269
   1.94352194  0.00000000 21.58101813
   1.94352194  0.00000000 17.70798668
   1.94352194  0.00000000 13.83495523
   1.94352194  0.00000000  9.85079544
   1.94352194  0.00000000  5.90266223
   1.94352194  0.00000000  1.95452901
   0.00000000  1.94352194 21.58101813
   0.00000000  1.94352194 17.70798668
   0.00000000  1.94352194 13.83495523
   0.00000000  1.94352194  9.85079544
   0.00000000  1.94352194  5.90266223
   0.00000000  1.94352194  1.95452901
 


--------------------------------------------------------------------------------------------------------


 k-point  1 :   0.0000 0.0000 0.0000  plane waves:    9607
 k-point  2 :   0.2000 0.0000 0.0000  plane waves:    9585
 k-point  3 :   0.4000 0.0000 0.0000  plane waves:    9624
 k-point  4 :   0.2000 0.2000 0.0000  plane waves:    9598
 k-point  5 :   0.4000 0.2000 0.0000  plane waves:    9615
 k-point  6 :   0.4000 0.4000 0.0000  plane waves:    9590

 maximum and minimum number of plane-waves per node :       985      936

 maximum number of plane-waves:      9624
 maximum index in each direction: 
   IXMAX=    7   IYMAX=    7   IZMAX=   43
   IXMIN=   -7   IYMIN=   -7   IZMIN=  -43


 real space projection operators:
  total allocation   :      20313.97 KBytes
  max/ min on nodes  :       2104.94       1982.97


 parallel 3D FFT for wavefunctions:
    minimum data exchange during FFTs selected (reduces bandwidth)
 parallel 3D FFT for charge:
    minimum data exchange during FFTs selected (reduces bandwidth)


 total amount of memory used by VASP MPI-rank0    61644. kBytes
=======================================================================

   base      :      30000. kBytes
   nonlr-proj:       6778. kBytes
   fftplans  :       2675. kBytes
   grid      :       7548. kBytes
   one-center:        294. kBytes
   wavefun   :      14349. kBytes
 
     INWAV:  cpu time    0.0000: real time    0.0001
 Broyden mixing: mesh for mixing (old mesh)
   NGX = 15   NGY = 15   NGZ = 87
  (NGX  = 60   NGY  = 60   NGZ  =360)
  gives a total of  19575 points

 initial charge density was supplied:
 charge density of overlapping atoms calculated
 number of electron     222.0000000 magnetization      22.0000000
 keeping initial charge density in first step


--------------------------------------------------------------------------------------------------------


 Maximum index for non-local projection operator          814
 Maximum index for augmentation-charges          975 (set IRDMAX)


--------------------------------------------------------------------------------------------------------


 First call to EWALD:  gamma=   0.250
 Maximum number of real-space cells 5x 5x 1
 Maximum number of reciprocal cells 2x 2x 8

    FEWALD:  cpu time    0.0018: real time    0.0020


--------------------------------------- Iteration      1(   1)  ---------------------------------------


    POTLOK:  cpu time    0.0771: real time    0.0803
    SETDIJ:  cpu time    0.0149: real time    0.0149
atom =   1  type =  1  l = 0
 
 onsite density matrix
 
spin component  1
 
  1.0989
 
spin component  2
 
  1.0989
 
 occupancies and eigenvectors
 
  o =  1.0989  v =  1.0000  0.0000      0.0000  0.0000
  o =  1.0989  v =  0.0000  1.0000      0.0000  0.0000
atom =   2  type =  1  l = 0
 
 onsite density matrix
 
spin component  1
 
  1.0989
 
spin component  2
 
  1.0989
 
 occupancies and eigenvectors
 
  o =  1.0989  v =  1.0000  0.0000      0.0000  0.0000
  o =  1.0989  v =  0.0000  1.0000      0.0000  0.0000
atom =   3  type =  1  l = 0
 
 onsite density matrix
 
spin component  1
 
  1.0989
 
spin component  2
 
  1.0989
 
 occupancies and eigenvectors
 
  o =  1.0989  v =  1.0000  0.0000      0.0000  0.0000
  o =  1.0989  v =  0.0000  1.0000      0.0000  0.0000
atom =   4  type =  1  l = 0
 
 onsite density matrix
 
spin component  1
 
  1.0989
 
spin component  2
 
  1.0989
 
 occupancies and eigenvectors
 
  o =  1.0989  v =  1.0000  0.0000      0.0000  0.0000
  o =  1.0989  v =  0.0000  1.0000      0.0000  0.0000
atom =   5  type =  1  l = 0
 
 onsite density matrix
 
spin component  1
 
  1.0989
 
spin component  2
 
  1.0989
 
 occupancies and eigenvectors
 
  o =  1.0989  v =  1.0000  0.0000      0.0000  0.0000
  o =  1.0989  v =  0.0000  1.0000      0.0000  0.0000
atom =   6  type =  1  l = 0
 
 onsite density matrix
 
spin component  1
 
  1.0989
 
spin component  2
 
  1.0989
 
 occupancies and eigenvectors
 
  o =  1.0989  v =  1.0000  0.0000      0.0000  0.0000
  o =  1.0989  v =  0.0000  1.0000      0.0000  0.0000
atom =   7  type =  2  l = 2
 
 onsite density matrix
 
spin component  1
 
  0.8272  0.0000  0.0000  0.0000  0.0000
  0.0000  0.8272  0.0000  0.0000  0.0000
  0.0000  0.0000  0.8272  0.0000  0.0000
  0.0000  0.0000  0.0000  0.8272  0.0000
  0.0000  0.0000  0.0000  0.0000  0.8272
 
spin component  2
 
  0.2256  0.0000  0.0000  0.0000  0.0000
  0.0000  0.2256  0.0000  0.0000  0.0000
  0.0000  0.0000  0.2256  0.0000  0.0000
  0.0000  0.0000  0.0000  0.2256  0.0000
  0.0000  0.0000  0.0000  0.0000  0.2256
 
 occupancies and eigenvectors
 
  o =  0.2256  v =  0.0000  0.0000  0.0000  0.0000  0.0000  0.0000  0.0000  1.0000  0.0000  0.0000      0.0000  0.0000  0.0000  0.0000  0.0000  0.0000  0.0000  0.0000  0.0000  0.0000
  o =  0.2256  v =  0.0000  0.0000  0.0000  0.0000  0.0000  1.0000  0.0000  0.0000  0.0000  0.0000      0.0000  0.0000  0.0000  0.0000  0.0000  0.0000  0.0000  0.0000  0.0000  0.0000
  o =  0.2256  v =  0.0000  0.0000  0.0000  0.0000  0.0000  0.0000  1.0000  0.0000  0.0000  0.0000      0.0000  0.0000  0.0000  0.0000  0.0000  0.0000  0.0000  0.0000  0.0000  0.0000
  o =  0.2256  v =  0.0000  0.0000  0.0000  0.0000  0.0000  0.0000  0.0000  0.0000  1.0000  0.0000      0.0000  0.0000  0.0000  0.0000  0.0000  0.0000  0.0000  0.0000  0.0000  0.0000
  o =  0.2256  v =  0.0000  0.0000  0.0000  0.0000  0.0000  0.0000  0.0000  0.0000  0.0000  1.0000      0.0000  0.0000  0.0000  0.0000  0.0000  0.0000  0.0000  0.0000  0.0000  0.0000
  o =  0.8272  v =  0.0000  1.0000  0.0000  0.0000  0.0000  0.0000  0.0000  0.0000  0.0000  0.0000      0.0000  0.0000  0.0000  0.0000  0.0000  0.0000  0.0000  0.0000  0.0000  0.0000
  o =  0.8272  v =  0.0000  0.0000  1.0000  0.0000  0.0000  0.0000  0.0000  0.0000  0.0000  0.0000      0.0000  0.0000  0.0000  0.0000  0.0000  0.0000  0.0000  0.0000  0.0000  0.0000
  o =  0.8272  v =  1.0000  0.0000  0.0000  0.0000  0.0000  0.0000  0.0000  0.0000  0.0000  0.0000      0.0000  0.0000  0.0000  0.0000  0.0000  0.0000  0.0000  0.0000  0.0000  0.0000
  o =  0.8272  v =  0.0000  0.0000  0.0000  1.0000  0.0000  0.0000  0.0000  0.0000  0.0000  0.0000      0.0000  0.0000  0.0000  0.0000  0.0000  0.0000  0.0000  0.0000  0.0000  0.0000
  o =  0.8272  v =  0.0000  0.0000  0.0000  0.0000  1.0000  0.0000  0.0000  0.0000  0.0000  0.0000      0.0000  0.0000  0.0000  0.0000  0.0000  0.0000  0.0000  0.0000  0.0000  0.0000
atom =   8  type =  2  l = 2
 
 onsite density matrix
 
spin component  1
 
  0.8272  0.0000  0.0000  0.0000  0.0000
  0.0000  0.8272  0.0000  0.0000  0.0000
  0.0000  0.0000  0.8272  0.0000  0.0000
  0.0000  0.0000  0.0000  0.8272  0.0000
  0.0000  0.0000  0.0000  0.0000  0.8272
 
spin component  2
 
  0.2256  0.0000  0.0000  0.0000  0.0000
  0.0000  0.2256  0.0000  0.0000  0.0000
  0.0000  0.0000  0.2256  0.0000  0.0000
  0.0000  0.0000  0.0000  0.2256  0.0000
  0.0000  0.0000  0.0000  0.0000  0.2256
 
 occupancies and eigenvectors
 
  o =  0.2256  v =  0.0000  0.0000  0.0000  0.0000  0.0000  0.0000  0.0000  1.0000  0.0000  0.0000      0.0000  0.0000  0.0000  0.0000  0.0000  0.0000  0.0000  0.0000  0.0000  0.0000
  o =  0.2256  v =  0.0000  0.0000  0.0000  0.0000  0.0000  1.0000  0.0000  0.0000  0.0000  0.0000      0.0000  0.0000  0.0000  0.0000  0.0000  0.0000  0.0000  0.0000  0.0000  0.0000
  o =  0.2256  v =  0.0000  0.0000  0.0000  0.0000  0.0000  0.0000  1.0000  0.0000  0.0000  0.0000      0.0000  0.0000  0.0000  0.0000  0.0000  0.0000  0.0000  0.0000  0.0000  0.0000
  o =  0.2256  v =  0.0000  0.0000  0.0000  0.0000  0.0000  0.0000  0.0000  0.0000  1.0000  0.0000      0.0000  0.0000  0.0000  0.0000  0.0000  0.0000  0.0000  0.0000  0.0000  0.0000
  o =  0.2256  v =  0.0000  0.0000  0.0000  0.0000  0.0000  0.0000  0.0000  0.0000  0.0000  1.0000      0.0000  0.0000  0.0000  0.0000  0.0000  0.0000  0.0000  0.0000  0.0000  0.0000
  o =  0.8272  v =  0.0000  1.0000  0.0000  0.0000  0.0000  0.0000  0.0000  0.0000  0.0000  0.0000      0.0000  0.0000  0.0000  0.0000  0.0000  0.0000  0.0000  0.0000  0.0000  0.0000
  o =  0.8272  v =  0.0000  0.0000  1.0000  0.0000  0.0000  0.0000  0.0000  0.0000  0.0000  0.0000      0.0000  0.0000  0.0000  0.0000  0.0000  0.0000  0.0000  0.0000  0.0000  0.0000
  o =  0.8272  v =  1.0000  0.0000  0.0000  0.0000  0.0000  0.0000  0.0000  0.0000  0.0000  0.0000      0.0000  0.0000  0.0000  0.0000  0.0000  0.0000  0.0000  0.0000  0.0000  0.0000
  o =  0.8272  v =  0.0000  0.0000  0.0000  1.0000  0.0000  0.0000  0.0000  0.0000  0.0000  0.0000      0.0000  0.0000  0.0000  0.0000  0.0000  0.0000  0.0000  0.0000  0.0000  0.0000
  o =  0.8272  v =  0.0000  0.0000  0.0000  0.0000  1.0000  0.0000  0.0000  0.0000  0.0000  0.0000      0.0000  0.0000  0.0000  0.0000  0.0000  0.0000  0.0000  0.0000  0.0000  0.0000
atom =   9  type =  2  l = 2
 
 onsite density matrix
 
spin component  1
 
  0.8272  0.0000  0.0000  0.0000  0.0000
  0.0000  0.8272  0.0000  0.0000  0.0000
  0.0000  0.0000  0.8272  0.0000  0.0000
  0.0000  0.0000  0.0000  0.8272  0.0000
  0.0000  0.0000  0.0000  0.0000  0.8272
 
spin component  2
 
  0.2256  0.0000  0.0000  0.0000  0.0000
  0.0000  0.2256  0.0000  0.0000  0.0000
  0.0000  0.0000  0.2256  0.0000  0.0000
  0.0000  0.0000  0.0000  0.2256  0.0000
  0.0000  0.0000  0.0000  0.0000  0.2256
 
 occupancies and eigenvectors
 
  o =  0.2256  v =  0.0000  0.0000  0.0000  0.0000  0.0000  0.0000  0.0000  1.0000  0.0000  0.0000      0.0000  0.0000  0.0000  0.0000  0.0000  0.0000  0.0000  0.0000  0.0000  0.0000
  o =  0.2256  v =  0.0000  0.0000  0.0000  0.0000  0.0000  1.0000  0.0000  0.0000  0.0000  0.0000      0.0000  0.0000  0.0000  0.0000  0.0000  0.0000  0.0000  0.0000  0.0000  0.0000
  o =  0.2256  v =  0.0000  0.0000  0.0000  0.0000  0.0000  0.0000  1.0000  0.0000  0.0000  0.0000      0.0000  0.0000  0.0000  0.0000  0.0000  0.0000  0.0000  0.0000  0.0000  0.0000
  o =  0.2256  v =  0.0000  0.0000  0.0000  0.0000  0.0000  0.0000  0.0000  0.0000  1.0000  0.0000      0.0000  0.0000  0.0000  0.0000  0.0000  0.0000  0.0000  0.0000  0.0000  0.0000
  o =  0.2256  v =  0.0000  0.0000  0.0000  0.0000  0.0000  0.0000  0.0000  0.0000  0.0000  1.0000      0.0000  0.0000  0.0000  0.0000  0.0000  0.0000  0.0000  0.0000  0.0000  0.0000
  o =  0.8272  v =  0.0000  1.0000  0.0000  0.0000  0.0000  0.0000  0.0000  0.0000  0.0000  0.0000      0.0000  0.0000  0.0000  0.0000  0.0000  0.0000  0.0000  0.0000  0.0000  0.0000
  o =  0.8272  v =  0.0000  0.0000  1.0000  0.0000  0.0000  0.0000  0.0000  0.0000  0.0000  0.0000      0.0000  0.0000  0.0000  0.0000  0.0000  0.0000  0.0000  0.0000  0.0000  0.0000
  o =  0.8272  v =  1.0000  0.0000  0.0000  0.0000  0.0000  0.0000  0.0000  0.0000  0.0000  0.0000      0.0000  0.0000  0.0000  0.0000  0.0000  0.0000  0.0000  0.0000  0.0000  0.0000
  o =  0.8272  v =  0.0000  0.0000  0.0000  1.0000  0.0000  0.0000  0.0000  0.0000  0.0000  0.0000      0.0000  0.0000  0.0000  0.0000  0.0000  0.0000  0.0000  0.0000  0.0000  0.0000
  o =  0.8272  v =  0.0000  0.0000  0.0000  0.0000  1.0000  0.0000  0.0000  0.0000  0.0000  0.0000      0.0000  0.0000  0.0000  0.0000  0.0000  0.0000  0.0000  0.0000  0.0000  0.0000
atom =  10  type =  2  l = 2
 
 onsite density matrix
 
spin component  1
 
  0.8272  0.0000  0.0000  0.0000  0.0000
  0.0000  0.8272  0.0000  0.0000  0.0000
  0.0000  0.0000  0.8272  0.0000  0.0000
  0.0000  0.0000  0.0000  0.8272  0.0000
  0.0000  0.0000  0.0000  0.0000  0.8272
 
spin component  2
 
  0.2256  0.0000  0.0000  0.0000  0.0000
  0.0000  0.2256  0.0000  0.0000  0.0000
  0.0000  0.0000  0.2256  0.0000  0.0000
  0.0000  0.0000  0.0000  0.2256  0.0000
  0.0000  0.0000  0.0000  0.0000  0.2256
 
 occupancies and eigenvectors
 
  o =  0.2256  v =  0.0000  0.0000  0.0000  0.0000  0.0000  0.0000  0.0000  1.0000  0.0000  0.0000      0.0000  0.0000  0.0000  0.0000  0.0000  0.0000  0.0000  0.0000  0.0000  0.0000
  o =  0.2256  v =  0.0000  0.0000  0.0000  0.0000  0.0000  1.0000  0.0000  0.0000  0.0000  0.0000      0.0000  0.0000  0.0000  0.0000  0.0000  0.0000  0.0000  0.0000  0.0000  0.0000
  o =  0.2256  v =  0.0000  0.0000  0.0000  0.0000  0.0000  0.0000  1.0000  0.0000  0.0000  0.0000      0.0000  0.0000  0.0000  0.0000  0.0000  0.0000  0.0000  0.0000  0.0000  0.0000
  o =  0.2256  v =  0.0000  0.0000  0.0000  0.0000  0.0000  0.0000  0.0000  0.0000  1.0000  0.0000      0.0000  0.0000  0.0000  0.0000  0.0000  0.0000  0.0000  0.0000  0.0000  0.0000
  o =  0.2256  v =  0.0000  0.0000  0.0000  0.0000  0.0000  0.0000  0.0000  0.0000  0.0000  1.0000      0.0000  0.0000  0.0000  0.0000  0.0000  0.0000  0.0000  0.0000  0.0000  0.0000
  o =  0.8272  v =  0.0000  1.0000  0.0000  0.0000  0.0000  0.0000  0.0000  0.0000  0.0000  0.0000      0.0000  0.0000  0.0000  0.0000  0.0000  0.0000  0.0000  0.0000  0.0000  0.0000
  o =  0.8272  v =  0.0000  0.0000  1.0000  0.0000  0.0000  0.0000  0.0000  0.0000  0.0000  0.0000      0.0000  0.0000  0.0000  0.0000  0.0000  0.0000  0.0000  0.0000  0.0000  0.0000
  o =  0.8272  v =  1.0000  0.0000  0.0000  0.0000  0.0000  0.0000  0.0000  0.0000  0.0000  0.0000      0.0000  0.0000  0.0000  0.0000  0.0000  0.0000  0.0000  0.0000  0.0000  0.0000
  o =  0.8272  v =  0.0000  0.0000  0.0000  1.0000  0.0000  0.0000  0.0000  0.0000  0.0000  0.0000      0.0000  0.0000  0.0000  0.0000  0.0000  0.0000  0.0000  0.0000  0.0000  0.0000
  o =  0.8272  v =  0.0000  0.0000  0.0000  0.0000  1.0000  0.0000  0.0000  0.0000  0.0000  0.0000      0.0000  0.0000  0.0000  0.0000  0.0000  0.0000  0.0000  0.0000  0.0000  0.0000
atom =  11  type =  3  l = 2
 
 onsite density matrix
 
spin component  1
 
  1.1008  0.0000  0.0000  0.0000  0.0000
  0.0000  1.1008  0.0000  0.0000  0.0000
  0.0000  0.0000  1.1008  0.0000  0.0000
  0.0000  0.0000  0.0000  1.1008  0.0000
  0.0000  0.0000  0.0000  0.0000  1.1008
 
spin component  2
 
  0.5927  0.0000  0.0000  0.0000  0.0000
  0.0000  0.5927  0.0000  0.0000  0.0000
  0.0000  0.0000  0.5927  0.0000  0.0000
  0.0000  0.0000  0.0000  0.5927  0.0000
  0.0000  0.0000  0.0000  0.0000  0.5927
 
 occupancies and eigenvectors
 
  o =  0.5927  v =  0.0000  0.0000  0.0000  0.0000  0.0000  1.0000  0.0000  0.0000  0.0000  0.0000      0.0000  0.0000  0.0000  0.0000  0.0000  0.0000  0.0000  0.0000  0.0000  0.0000
  o =  0.5927  v =  0.0000  0.0000  0.0000  0.0000  0.0000  0.0000  1.0000  0.0000  0.0000  0.0000      0.0000  0.0000  0.0000  0.0000  0.0000  0.0000  0.0000  0.0000  0.0000  0.0000
  o =  0.5927  v =  0.0000  0.0000  0.0000  0.0000  0.0000  0.0000  0.0000  1.0000  0.0000  0.0000      0.0000  0.0000  0.0000  0.0000  0.0000  0.0000  0.0000  0.0000  0.0000  0.0000
  o =  0.5927  v =  0.0000  0.0000  0.0000  0.0000  0.0000  0.0000  0.0000  0.0000  1.0000  0.0000      0.0000  0.0000  0.0000  0.0000  0.0000  0.0000  0.0000  0.0000  0.0000  0.0000
  o =  0.5927  v =  0.0000  0.0000  0.0000  0.0000  0.0000  0.0000  0.0000  0.0000  0.0000  1.0000      0.0000  0.0000  0.0000  0.0000  0.0000  0.0000  0.0000  0.0000  0.0000  0.0000
  o =  1.1008  v =  1.0000  0.0000  0.0000  0.0000  0.0000  0.0000  0.0000  0.0000  0.0000  0.0000      0.0000  0.0000  0.0000  0.0000  0.0000  0.0000  0.0000  0.0000  0.0000  0.0000
  o =  1.1008  v =  0.0000  1.0000  0.0000  0.0000  0.0000  0.0000  0.0000  0.0000  0.0000  0.0000      0.0000  0.0000  0.0000  0.0000  0.0000  0.0000  0.0000  0.0000  0.0000  0.0000
  o =  1.1008  v =  0.0000  0.0000  1.0000  0.0000  0.0000  0.0000  0.0000  0.0000  0.0000  0.0000      0.0000  0.0000  0.0000  0.0000  0.0000  0.0000  0.0000  0.0000  0.0000  0.0000
  o =  1.1008  v =  0.0000  0.0000  0.0000  1.0000  0.0000  0.0000  0.0000  0.0000  0.0000  0.0000      0.0000  0.0000  0.0000  0.0000  0.0000  0.0000  0.0000  0.0000  0.0000  0.0000
  o =  1.1008  v =  0.0000  0.0000  0.0000  0.0000  1.0000  0.0000  0.0000  0.0000  0.0000  0.0000      0.0000  0.0000  0.0000  0.0000  0.0000  0.0000  0.0000  0.0000  0.0000  0.0000
atom =  12  type =  3  l = 2
 
 onsite density matrix
 
spin component  1
 
  1.1008  0.0000  0.0000  0.0000  0.0000
  0.0000  1.1008  0.0000  0.0000  0.0000
  0.0000  0.0000  1.1008  0.0000  0.0000
  0.0000  0.0000  0.0000  1.1008  0.0000
  0.0000  0.0000  0.0000  0.0000  1.1008
 
spin component  2
 
  0.5927  0.0000  0.0000  0.0000  0.0000
  0.0000  0.5927  0.0000  0.0000  0.0000
  0.0000  0.0000  0.5927  0.0000  0.0000
  0.0000  0.0000  0.0000  0.5927  0.0000
  0.0000  0.0000  0.0000  0.0000  0.5927
 
 occupancies and eigenvectors
 
  o =  0.5927  v =  0.0000  0.0000  0.0000  0.0000  0.0000  1.0000  0.0000  0.0000  0.0000  0.0000      0.0000  0.0000  0.0000  0.0000  0.0000  0.0000  0.0000  0.0000  0.0000  0.0000
  o =  0.5927  v =  0.0000  0.0000  0.0000  0.0000  0.0000  0.0000  1.0000  0.0000  0.0000  0.0000      0.0000  0.0000  0.0000  0.0000  0.0000  0.0000  0.0000  0.0000  0.0000  0.0000
  o =  0.5927  v =  0.0000  0.0000  0.0000  0.0000  0.0000  0.0000  0.0000  1.0000  0.0000  0.0000      0.0000  0.0000  0.0000  0.0000  0.0000  0.0000  0.0000  0.0000  0.0000  0.0000
  o =  0.5927  v =  0.0000  0.0000  0.0000  0.0000  0.0000  0.0000  0.0000  0.0000  1.0000  0.0000      0.0000  0.0000  0.0000  0.0000  0.0000  0.0000  0.0000  0.0000  0.0000  0.0000
  o =  0.5927  v =  0.0000  0.0000  0.0000  0.0000  0.0000  0.0000  0.0000  0.0000  0.0000  1.0000      0.0000  0.0000  0.0000  0.0000  0.0000  0.0000  0.0000  0.0000  0.0000  0.0000
  o =  1.1008  v =  1.0000  0.0000  0.0000  0.0000  0.0000  0.0000  0.0000  0.0000  0.0000  0.0000      0.0000  0.0000  0.0000  0.0000  0.0000  0.0000  0.0000  0.0000  0.0000  0.0000
  o =  1.1008  v =  0.0000  1.0000  0.0000  0.0000  0.0000  0.0000  0.0000  0.0000  0.0000  0.0000      0.0000  0.0000  0.0000  0.0000  0.0000  0.0000  0.0000  0.0000  0.0000  0.0000
  o =  1.1008  v =  0.0000  0.0000  1.0000  0.0000  0.0000  0.0000  0.0000  0.0000  0.0000  0.0000      0.0000  0.0000  0.0000  0.0000  0.0000  0.0000  0.0000  0.0000  0.0000  0.0000
  o =  1.1008  v =  0.0000  0.0000  0.0000  1.0000  0.0000  0.0000  0.0000  0.0000  0.0000  0.0000      0.0000  0.0000  0.0000  0.0000  0.0000  0.0000  0.0000  0.0000  0.0000  0.0000
  o =  1.1008  v =  0.0000  0.0000  0.0000  0.0000  1.0000  0.0000  0.0000  0.0000  0.0000  0.0000      0.0000  0.0000  0.0000  0.0000  0.0000  0.0000  0.0000  0.0000  0.0000  0.0000
atom =  13  type =  4  l = 0
 
 onsite density matrix
 
spin component  1
 
  0.8190
 
spin component  2
 
  0.8190
 
 occupancies and eigenvectors
 
  o =  0.8190  v =  1.0000  0.0000      0.0000  0.0000
  o =  0.8190  v =  0.0000  1.0000      0.0000  0.0000
atom =  14  type =  4  l = 0
 
 onsite density matrix
 
spin component  1
 
  0.8190
 
spin component  2
 
  0.8190
 
 occupancies and eigenvectors
 
  o =  0.8190  v =  1.0000  0.0000      0.0000  0.0000
  o =  0.8190  v =  0.0000  1.0000      0.0000  0.0000
atom =  15  type =  4  l = 0
 
 onsite density matrix
 
spin component  1
 
  0.8190
 
spin component  2
 
  0.8190
 
 occupancies and eigenvectors
 
  o =  0.8190  v =  1.0000  0.0000      0.0000  0.0000
  o =  0.8190  v =  0.0000  1.0000      0.0000  0.0000
atom =  16  type =  4  l = 0
 
 onsite density matrix
 
spin component  1
 
  0.8190
 
spin component  2
 
  0.8190
 
 occupancies and eigenvectors
 
  o =  0.8190  v =  1.0000  0.0000      0.0000  0.0000
  o =  0.8190  v =  0.0000  1.0000      0.0000  0.0000
atom =  17  type =  4  l = 0
 
 onsite density matrix
 
spin component  1
 
  0.8190
 
spin component  2
 
  0.8190
 
 occupancies and eigenvectors
 
  o =  0.8190  v =  1.0000  0.0000      0.0000  0.0000
  o =  0.8190  v =  0.0000  1.0000      0.0000  0.0000
atom =  18  type =  4  l = 0
 
 onsite density matrix
 
spin component  1
 
  0.8190
 
spin component  2
 
  0.8190
 
 occupancies and eigenvectors
 
  o =  0.8190  v =  1.0000  0.0000      0.0000  0.0000
  o =  0.8190  v =  0.0000  1.0000      0.0000  0.0000
atom =  19  type =  4  l = 0
 
 onsite density matrix
 
spin component  1
 
  0.8190
 
spin component  2
 
  0.8190
 
 occupancies and eigenvectors
 
  o =  0.8190  v =  1.0000  0.0000      0.0000  0.0000
  o =  0.8190  v =  0.0000  1.0000      0.0000  0.0000
atom =  20  type =  4  l = 0
 
 onsite density matrix
 
spin component  1
 
  0.8190
 
spin component  2
 
  0.8190
 
 occupancies and eigenvectors
 
  o =  0.8190  v =  1.0000  0.0000      0.0000  0.0000
  o =  0.8190  v =  0.0000  1.0000      0.0000  0.0000
atom =  21  type =  4  l = 0
 
 onsite density matrix
 
spin component  1
 
  0.8190
 
spin component  2
 
  0.8190
 
 occupancies and eigenvectors
 
  o =  0.8190  v =  1.0000  0.0000      0.0000  0.0000
  o =  0.8190  v =  0.0000  1.0000      0.0000  0.0000
atom =  22  type =  4  l = 0
 
 onsite density matrix
 
spin component  1
 
  0.8190
 
spin component  2
 
  0.8190
 
 occupancies and eigenvectors
 
  o =  0.8190  v =  1.0000  0.0000      0.0000  0.0000
  o =  0.8190  v =  0.0000  1.0000      0.0000  0.0000
atom =  23  type =  4  l = 0
 
 onsite density matrix
 
spin component  1
 
  0.8190
 
spin component  2
 
  0.8190
 
 occupancies and eigenvectors
 
  o =  0.8190  v =  1.0000  0.0000      0.0000  0.0000
  o =  0.8190  v =  0.0000  1.0000      0.0000  0.0000
atom =  24  type =  4  l = 0
 
 onsite density matrix
 
spin component  1
 
  0.8190
 
spin component  2
 
  0.8190
 
 occupancies and eigenvectors
 
  o =  0.8190  v =  1.0000  0.0000      0.0000  0.0000
  o =  0.8190  v =  0.0000  1.0000      0.0000  0.0000
atom =  25  type =  4  l = 0
 
 onsite density matrix
 
spin component  1
 
  0.8190
 
spin component  2
 
  0.8190
 
 occupancies and eigenvectors
 
  o =  0.8190  v =  1.0000  0.0000      0.0000  0.0000
  o =  0.8190  v =  0.0000  1.0000      0.0000  0.0000
atom =  26  type =  4  l = 0
 
 onsite density matrix
 
spin component  1
 
  0.8190
 
spin component  2
 
  0.8190
 
 occupancies and eigenvectors
 
  o =  0.8190  v =  1.0000  0.0000      0.0000  0.0000
  o =  0.8190  v =  0.0000  1.0000      0.0000  0.0000
atom =  27  type =  4  l = 0
 
 onsite density matrix
 
spin component  1
 
  0.8190
 
spin component  2
 
  0.8190
 
 occupancies and eigenvectors
 
  o =  0.8190  v =  1.0000  0.0000      0.0000  0.0000
  o =  0.8190  v =  0.0000  1.0000      0.0000  0.0000
atom =  28  type =  4  l = 0
 
 onsite density matrix
 
spin component  1
 
  0.8190
 
spin component  2
 
  0.8190
 
 occupancies and eigenvectors
 
  o =  0.8190  v =  1.0000  0.0000      0.0000  0.0000
  o =  0.8190  v =  0.0000  1.0000      0.0000  0.0000
atom =  29  type =  4  l = 0
 
 onsite density matrix
 
spin component  1
 
  0.8190
 
spin component  2
 
  0.8190
 
 occupancies and eigenvectors
 
  o =  0.8190  v =  1.0000  0.0000      0.0000  0.0000
  o =  0.8190  v =  0.0000  1.0000      0.0000  0.0000
atom =  30  type =  4  l = 0
 
 onsite density matrix
 
spin component  1
 
  0.8190
 
spin component  2
 
  0.8190
 
 occupancies and eigenvectors
 
  o =  0.8190  v =  1.0000  0.0000      0.0000  0.0000
  o =  0.8190  v =  0.0000  1.0000      0.0000  0.0000
     EDDAV:  cpu time    2.0298: real time    2.0381
 BZINTS: Fermi energy: 31.344523;222.000000 electrons
         Band energy:3294.462862;  BLOECHL correction: -0.178147
       DOS:  cpu time    0.0100: real time    0.0102
    --------------------------------------------
      LOOP:  cpu time    2.1319: real time    2.1435

 eigenvalue-minimisations  :  3712
 total energy-change (2. order) : 0.3552592E+04  (-0.7745180E+04)
 number of electron     222.0000000 magnetization      22.0000000
 augmentation part      222.0000000 magnetization      22.0000000

 Free energy of the ion-electron system (eV)
  ---------------------------------------------------
  alpha Z        PSCENC =       972.46577481
  Ewald energy   TEWEN  =    -14875.55786045
  -Hartree energ DENC   =     -3324.61978859
  -exchange      EXHF   =         0.00000000
  -V(xc)+E(xc)   XCENC  =       710.56835454
  PAW double counting   =     13644.53670636   -13669.90867429
  entropy T*S    EENTRO =         0.00000000
  eigenvalues    EBANDS =      3294.46286224
  atomic energy  EATOM  =     16800.64461370
  Solvation  Ediel_sol  =         0.00000000
  ---------------------------------------------------
  free energy    TOTEN  =      3552.59198831 eV

  energy without entropy =     3552.59198831  energy(sigma->0) =     3552.59198831


--------------------------------------------------------------------------------------------------------




--------------------------------------- Iteration      1(   2)  ---------------------------------------


     EDDAV:  cpu time    2.0664: real time    2.0753
 BZINTS: Fermi energy: 16.336331;222.000000 electrons
         Band energy: 980.964529;  BLOECHL correction: -0.027280
       DOS:  cpu time    0.0104: real time    0.0104
    --------------------------------------------
      LOOP:  cpu time    2.0768: real time    2.0857

 eigenvalue-minimisations  :  3864
 total energy-change (2. order) :-0.2313498E+04  (-0.2084159E+04)
 number of electron     222.0000000 magnetization      22.0000000
 augmentation part      222.0000000 magnetization      22.0000000

 Free energy of the ion-electron system (eV)
  ---------------------------------------------------
  alpha Z        PSCENC =       972.46577481
  Ewald energy   TEWEN  =    -14875.55786045
  -Hartree energ DENC   =     -3324.61978859
  -exchange      EXHF   =         0.00000000
  -V(xc)+E(xc)   XCENC  =       710.56835454
  PAW double counting   =     13644.53670636   -13669.90867429
  entropy T*S    EENTRO =         0.00000000
  eigenvalues    EBANDS =       980.96452851
  atomic energy  EATOM  =     16800.64461370
  Solvation  Ediel_sol  =         0.00000000
  ---------------------------------------------------
  free energy    TOTEN  =      1239.09365458 eV

  energy without entropy =     1239.09365458  energy(sigma->0) =     1239.09365458


--------------------------------------------------------------------------------------------------------




--------------------------------------- Iteration      1(   3)  ---------------------------------------


     EDDAV:  cpu time    2.1498: real time    2.1577
 BZINTS: Fermi energy: 12.027853;222.000000 electrons
         Band energy:  12.684458;  BLOECHL correction: -0.026233
       DOS:  cpu time    0.0105: real time    0.0106
    --------------------------------------------
      LOOP:  cpu time    2.1603: real time    2.1682

 eigenvalue-minimisations  :  4000
 total energy-change (2. order) :-0.9682801E+03  (-0.8743629E+03)
 number of electron     222.0000000 magnetization      22.0000000
 augmentation part      222.0000000 magnetization      22.0000000

 Free energy of the ion-electron system (eV)
  ---------------------------------------------------
  alpha Z        PSCENC =       972.46577481
  Ewald energy   TEWEN  =    -14875.55786045
  -Hartree energ DENC   =     -3324.61978859
  -exchange      EXHF   =         0.00000000
  -V(xc)+E(xc)   XCENC  =       710.56835454
  PAW double counting   =     13644.53670636   -13669.90867429
  entropy T*S    EENTRO =         0.00000000
  eigenvalues    EBANDS =        12.68445819
  atomic energy  EATOM  =     16800.64461370
  Solvation  Ediel_sol  =         0.00000000
  ---------------------------------------------------
  free energy    TOTEN  =       270.81358426 eV

  energy without entropy =      270.81358426  energy(sigma->0) =      270.81358426


--------------------------------------------------------------------------------------------------------




--------------------------------------- Iteration      1(   4)  ---------------------------------------


     EDDAV:  cpu time    2.8260: real time    2.8366
 BZINTS: Fermi energy: 11.298413;222.000000 electrons
         Band energy:-418.677527;  BLOECHL correction: -0.012454
       DOS:  cpu time    0.0103: real time    0.0103
    --------------------------------------------
      LOOP:  cpu time    2.8362: real time    2.8469

 eigenvalue-minimisations  :  5616
 total energy-change (2. order) :-0.4313620E+03  (-0.4054187E+03)
 number of electron     222.0000000 magnetization      22.0000000
 augmentation part      222.0000000 magnetization      22.0000000

 Free energy of the ion-electron system (eV)
  ---------------------------------------------------
  alpha Z        PSCENC =       972.46577481
  Ewald energy   TEWEN  =    -14875.55786045
  -Hartree energ DENC   =     -3324.61978859
  -exchange      EXHF   =         0.00000000
  -V(xc)+E(xc)   XCENC  =       710.56835454
  PAW double counting   =     13644.53670636   -13669.90867429
  entropy T*S    EENTRO =         0.00000000
  eigenvalues    EBANDS =      -418.67752712
  atomic energy  EATOM  =     16800.64461370
  Solvation  Ediel_sol  =         0.00000000
  ---------------------------------------------------
  free energy    TOTEN  =      -160.54840105 eV

  energy without entropy =     -160.54840105  energy(sigma->0) =     -160.54840105


--------------------------------------------------------------------------------------------------------




--------------------------------------- Iteration      1(   5)  ---------------------------------------


     EDDAV:  cpu time    3.1186: real time    3.1385
 BZINTS: Fermi energy: 10.858632;222.000000 electrons
         Band energy:-513.550200;  BLOECHL correction: -0.112302
       DOS:  cpu time    0.0089: real time    0.0089
    CHARGE:  cpu time    0.1091: real time    0.1095
    MIXING:  cpu time    0.0036: real time    0.0040
    --------------------------------------------
      LOOP:  cpu time    3.2403: real time    3.2610

 eigenvalue-minimisations  :  6288
 total energy-change (2. order) :-0.9487267E+02  (-0.9127538E+02)
 number of electron     222.0000091 magnetization      21.5080174
 augmentation part       26.1353519 magnetization      15.5930118

 Broyden mixing:
  rms(total) = 0.72008E+01    rms(broyden)= 0.72000E+01
  rms(prec ) = 0.74264E+01
  weight for this iteration     100.00

 Free energy of the ion-electron system (eV)
  ---------------------------------------------------
  alpha Z        PSCENC =       972.46577481
  Ewald energy   TEWEN  =    -14875.55786045
  -Hartree energ DENC   =     -3324.61978859
  -exchange      EXHF   =         0.00000000
  -V(xc)+E(xc)   XCENC  =       710.56835454
  PAW double counting   =     13644.53670636   -13669.90867429
  entropy T*S    EENTRO =         0.00000000
  eigenvalues    EBANDS =      -513.55019993
  atomic energy  EATOM  =     16800.64461370
  Solvation  Ediel_sol  =         0.00000000
  ---------------------------------------------------
  free energy    TOTEN  =      -255.42107386 eV

  energy without entropy =     -255.42107386  energy(sigma->0) =     -255.42107386


--------------------------------------------------------------------------------------------------------




--------------------------------------- Iteration      1(   6)  ---------------------------------------


    POTLOK:  cpu time    0.0742: real time    0.0764
    SETDIJ:  cpu time    0.0125: real time    0.0125
atom =   1  type =  1  l = 0
 
 onsite density matrix
 
spin component  1
 
  1.0561
 
spin component  2
 
  1.0560
 
 occupancies and eigenvectors
 
  o =  1.0560  v =  0.0000  1.0000      0.0000  0.0000
  o =  1.0561  v =  1.0000  0.0000      0.0000  0.0000
atom =   2  type =  1  l = 0
 
 onsite density matrix
 
spin component  1
 
  1.0561
 
spin component  2
 
  1.0560
 
 occupancies and eigenvectors
 
  o =  1.0560  v =  0.0000  1.0000      0.0000  0.0000
  o =  1.0561  v =  1.0000  0.0000      0.0000  0.0000
atom =   3  type =  1  l = 0
 
 onsite density matrix
 
spin component  1
 
  1.0567
 
spin component  2
 
  1.0570
 
 occupancies and eigenvectors
 
  o =  1.0567  v =  1.0000  0.0000      0.0000  0.0000
  o =  1.0570  v =  0.0000  1.0000      0.0000  0.0000
atom =   4  type =  1  l = 0
 
 onsite density matrix
 
spin component  1
 
  1.0562
 
spin component  2
 
  1.0561
 
 occupancies and eigenvectors
 
  o =  1.0561  v =  0.0000  1.0000      0.0000  0.0000
  o =  1.0562  v =  1.0000  0.0000      0.0000  0.0000
atom =   5  type =  1  l = 0
 
 onsite density matrix
 
spin component  1
 
  1.0562
 
spin component  2
 
  1.0561
 
 occupancies and eigenvectors
 
  o =  1.0561  v =  0.0000  1.0000      0.0000  0.0000
  o =  1.0562  v =  1.0000  0.0000      0.0000  0.0000
atom =   6  type =  1  l = 0
 
 onsite density matrix
 
spin component  1
 
  1.0567
 
spin component  2
 
  1.0570
 
 occupancies and eigenvectors
 
  o =  1.0567  v =  1.0000  0.0000      0.0000  0.0000
  o =  1.0570  v =  0.0000  1.0000      0.0000  0.0000
atom =   7  type =  2  l = 2
 
 onsite density matrix
 
spin component  1
 
  0.9563  0.0000  0.0000  0.0000  0.0000
  0.0000  0.9254  0.0000  0.0000 -0.0000
  0.0000  0.0000  0.4505  0.0000 -0.0000
  0.0000  0.0000  0.0000  0.9254 -0.0000
  0.0000 -0.0000 -0.0000 -0.0000  0.4026
 
spin component  2
 
  0.0244 -0.0000  0.0000 -0.0000 -0.0000
 -0.0000  0.0411  0.0000  0.0000  0.0000
  0.0000  0.0000  0.3709 -0.0000 -0.0000
 -0.0000  0.0000 -0.0000  0.0411  0.0000
 -0.0000  0.0000 -0.0000  0.0000  0.4119
 
 occupancies and eigenvectors
 
  o =  0.0244  v =  0.0000  0.0000  0.0000  0.0000  0.0000  1.0000  0.0000  0.0000  0.0000  0.0000      0.0000  0.0000  0.0000  0.0000  0.0000  0.0000  0.0000  0.0000  0.0000  0.0000
  o =  0.0411  v =  0.0000  0.0000  0.0000  0.0000  0.0000  0.0000 -0.0494  0.0000 -0.9988  0.0000      0.0000  0.0000  0.0000  0.0000  0.0000  0.0000  0.0000  0.0000  0.0000  0.0000
  o =  0.0411  v =  0.0000  0.0000  0.0000  0.0000  0.0000  0.0000 -0.9988 -0.0000  0.0494  0.0000      0.0000  0.0000  0.0000  0.0000  0.0000  0.0000  0.0000  0.0000  0.0000  0.0000
  o =  0.3709  v =  0.0000  0.0000  0.0000  0.0000  0.0000  0.0000 -0.0000 -1.0000 -0.0000  0.0000      0.0000  0.0000  0.0000  0.0000  0.0000  0.0000  0.0000  0.0000  0.0000  0.0000
  o =  0.4026  v =  0.0000 -0.0000 -0.0000  0.0000  1.0000  0.0000  0.0000  0.0000  0.0000  0.0000      0.0000  0.0000  0.0000  0.0000  0.0000  0.0000  0.0000  0.0000  0.0000  0.0000
  o =  0.4119  v =  0.0000  0.0000  0.0000  0.0000  0.0000  0.0000 -0.0000 -0.0000 -0.0000 -1.0000      0.0000  0.0000  0.0000  0.0000  0.0000  0.0000  0.0000  0.0000  0.0000  0.0000
  o =  0.4505  v =  0.0000 -0.0000 -1.0000  0.0000 -0.0000  0.0000  0.0000  0.0000  0.0000  0.0000      0.0000  0.0000  0.0000  0.0000  0.0000  0.0000  0.0000  0.0000  0.0000  0.0000
  o =  0.9254  v =  0.0000  0.2958 -0.0000 -0.9553  0.0000  0.0000  0.0000  0.0000  0.0000  0.0000      0.0000  0.0000  0.0000  0.0000  0.0000  0.0000  0.0000  0.0000  0.0000  0.0000
  o =  0.9254  v =  0.0000  0.9553 -0.0000  0.2958  0.0000  0.0000  0.0000  0.0000  0.0000  0.0000      0.0000  0.0000  0.0000  0.0000  0.0000  0.0000  0.0000  0.0000  0.0000  0.0000
  o =  0.9563  v =  1.0000  0.0000  0.0000  0.0000  0.0000  0.0000  0.0000  0.0000  0.0000  0.0000      0.0000  0.0000  0.0000  0.0000  0.0000  0.0000  0.0000  0.0000  0.0000  0.0000
atom =   8  type =  2  l = 2
 
 onsite density matrix
 
spin component  1
 
  0.9663 -0.0000  0.0000  0.0000  0.0000
 -0.0000  0.9534  0.0000  0.0000  0.0000
  0.0000  0.0000  0.3794 -0.0000  0.0000
  0.0000  0.0000 -0.0000  0.9534 -0.0000
  0.0000  0.0000  0.0000 -0.0000  0.4131
 
spin component  2
 
  0.0188 -0.0000  0.0000 -0.0000  0.0000
 -0.0000  0.0303  0.0000  0.0000 -0.0000
  0.0000  0.0000  0.4298  0.0000  0.0000
 -0.0000  0.0000  0.0000  0.0303 -0.0000
  0.0000 -0.0000  0.0000 -0.0000  0.4056
 
 occupancies and eigenvectors
 
  o =  0.0188  v =  0.0000  0.0000  0.0000  0.0000  0.0000  1.0000  0.0000  0.0000  0.0000  0.0000      0.0000  0.0000  0.0000  0.0000  0.0000  0.0000  0.0000  0.0000  0.0000  0.0000
  o =  0.0303  v =  0.0000  0.0000  0.0000  0.0000  0.0000  0.0000 -0.0238 -0.0000 -0.9997 -0.0000      0.0000  0.0000  0.0000  0.0000  0.0000  0.0000  0.0000  0.0000  0.0000  0.0000
  o =  0.0303  v =  0.0000  0.0000  0.0000  0.0000  0.0000  0.0000  0.9997 -0.0000 -0.0238  0.0000      0.0000  0.0000  0.0000  0.0000  0.0000  0.0000  0.0000  0.0000  0.0000  0.0000
[...]
 -0.000  -0.002   0.000  -0.000  -0.000   0.000  -0.000   0.000   0.000   0.000  -0.002   0.000   0.000   0.000   0.000   0.001
  0.000   0.000  -0.000  -0.000   0.000   0.000   0.000   0.000  -0.000  -0.000   0.000   0.000   0.000   0.000   0.000   0.000
  0.000   0.000   0.000   0.000   0.000   0.000   0.000   0.000   0.000  -0.000   0.000   0.000  -0.005   0.000   0.000   0.000
  0.000   0.000   0.000   0.000  -0.000   0.000  -0.000  -0.000   0.000  -0.000   0.000  -0.004   0.000   0.000  -0.000   0.000
  0.000  -0.000   0.000  -0.000  -0.000  -0.000   0.000   0.000   0.000  -0.007  -0.000   0.000  -0.000   0.000   0.002  -0.000
  0.000   0.000   0.000   0.000   0.000   0.000   0.000   0.000  -0.007  -0.000   0.000  -0.000   0.000   0.002  -0.000   0.000
  0.000   0.000   0.000   0.000   0.000  -0.001   0.000   0.000   0.000   0.000   0.000  -0.000   0.000   0.000  -0.000   0.000
 -0.000   0.003   0.000  -0.000   0.000   0.000   0.001   0.000   0.000   0.000   0.005  -0.000   0.000   0.000   0.000  -0.001
  0.000   0.000   0.000  -0.000   0.000   0.000  -0.000  -0.001   0.000   0.000   0.000   0.000   0.000   0.000  -0.000   0.000
  0.000   0.000  -0.000   0.000   0.000   0.000   0.000   0.000   0.000  -0.000   0.000   0.000   0.010   0.000  -0.000   0.000
  0.000   0.000   0.000   0.000  -0.000   0.000   0.000   0.000   0.000   0.000   0.000   0.007   0.000   0.000  -0.000   0.000


------------------------ aborting loop because EDIFF is reached ----------------------------------------


 


 total charge     
 
# of ion       s       p       d       f       tot
--------------------------------------------------
    1        2.000   5.696   0.480   0.185   8.361
    2        2.000   5.696   0.480   0.185   8.361
    3        2.002   5.694   0.501   0.190   8.388
    4        2.001   5.699   0.494   0.190   8.383
    5        2.001   5.699   0.494   0.190   8.383
    6        2.003   5.694   0.501   0.190   8.388
    7        0.308   0.457   4.897   0.000   5.663
    8        0.331   0.508   4.874   0.000   5.713
    9        0.331   0.508   4.874   0.000   5.713
   10        0.336   0.516   4.864   0.000   5.716
   11        0.405   0.590   8.336   0.000   9.331
   12        0.405   0.590   8.336   0.000   9.331
   13        1.564   3.455   0.000   0.000   5.020
   14        1.564   3.455   0.000   0.000   5.020
   15        1.561   3.448   0.000   0.000   5.009
   16        1.561   3.449   0.000   0.000   5.010
   17        1.561   3.449   0.000   0.000   5.010
   18        1.561   3.448   0.000   0.000   5.009
   19        1.559   3.522   0.000   0.000   5.081
   20        1.556   3.534   0.000   0.000   5.090
   21        1.559   3.522   0.000   0.000   5.081
   22        1.555   3.505   0.000   0.000   5.060
   23        1.559   3.511   0.000   0.000   5.070
   24        1.555   3.504   0.000   0.000   5.060
   25        1.570   3.385   0.000   0.000   4.955
   26        1.568   3.384   0.000   0.000   4.953
   27        1.570   3.385   0.000   0.000   4.955
   28        1.559   3.424   0.000   0.000   4.983
   29        1.571   3.382   0.000   0.000   4.952
   30        1.559   3.424   0.000   0.000   4.982
--------------------------------------------------
tot         42.236  99.534  39.130   1.132 182.031

 


 magnetization (x)
 
# of ion       s       p       d       f       tot
--------------------------------------------------
    1        0.001  -0.000   0.009   0.004   0.014
    2        0.001  -0.000   0.009   0.004   0.014
    3        0.001  -0.000   0.006   0.004   0.010
    4        0.001   0.001   0.014   0.007   0.022
    5        0.001   0.001   0.014   0.007   0.022
    6        0.001  -0.000   0.006   0.004   0.010
    7        0.023   0.020   3.808   0.000   3.851
    8        0.024   0.025   3.565   0.000   3.614
    9        0.024   0.025   3.564   0.000   3.614
   10        0.025   0.025   3.489   0.000   3.539
   11        0.016   0.013   1.646   0.000   1.675
   12        0.016   0.013   1.646   0.000   1.675
   13        0.006  -0.035   0.000   0.000  -0.028
   14        0.006  -0.035   0.000   0.000  -0.028
   15        0.006  -0.008   0.000   0.000  -0.002
   16        0.005  -0.015   0.000   0.000  -0.010
   17        0.005  -0.015   0.000   0.000  -0.010
   18        0.006  -0.008   0.000   0.000  -0.002
   19        0.009  -0.059   0.000   0.000  -0.050
   20        0.007  -0.046   0.000   0.000  -0.039
   21        0.009  -0.059   0.000   0.000  -0.050
   22        0.011  -0.004   0.000   0.000   0.006
   23        0.009  -0.074   0.000   0.000  -0.065
   24        0.011  -0.004   0.000   0.000   0.006
   25       -0.000  -0.038   0.000   0.000  -0.038
   26       -0.000  -0.043   0.000   0.000  -0.044
   27       -0.000  -0.037   0.000   0.000  -0.038
   28        0.002   0.004   0.000   0.000   0.006
   29       -0.001  -0.040   0.000   0.000  -0.041
   30        0.002   0.004   0.000   0.000   0.006
--------------------------------------------------
tot          0.226  -0.391  17.777   0.029  17.641

 
    CHARGE:  cpu time    0.1102: real time    0.1107
    FORLOC:  cpu time    0.0113: real time    0.0114
    FORNL :  cpu time    0.5939: real time    0.5960
    STRESS:  cpu time    1.7600: real time    1.7656
    FORCOR:  cpu time    0.0841: real time    0.0846
    FORHAR:  cpu time    0.0186: real time    0.0188
    MIXING:  cpu time    0.0058: real time    0.0058
    OFIELD:  cpu time    0.0001: real time    0.0002

  FORCE on cell =-STRESS in cart. coord.  units (eV):
  Direction    XX          YY          ZZ          XY          YZ          ZX
  --------------------------------------------------------------------------------------
  Alpha Z   972.46577   972.46577   972.46577
  Ewald   -4762.91985 -4762.91985 -5349.77245    -0.00000     0.00000     0.00000
  Hartree  1309.00626  1309.00626   803.21525    -0.00000    -0.00000    -0.00000
  E(xc)   -1025.81429 -1025.81429 -1026.13714     0.00000    -0.00000    -0.00000
  Local   -1073.19295 -1073.19295    16.05063     0.00000     0.00000    -0.00000
  n-local   408.28691   400.39068   403.47392    -2.57462     0.00061     0.00127
  augment   343.18070   343.18070   343.84857     0.00000     0.00000    -0.00000
  Kinetic  3783.77943  3885.88198  3837.26199   -11.27807     0.00066    -0.00448
  Fock        0.00000     0.00000     0.00000     0.00000     0.00000     0.00000
  -------------------------------------------------------------------------------------
  Total       1.89514     1.89514     0.40655     0.00000     0.00000     0.00000
  in kB       8.51147     8.51147     1.82588     0.00000     0.00000     0.00000
  external pressure =        6.28 kB  Pullay stress =        0.00 kB


 VOLUME and BASIS-vectors are now :
 -----------------------------------------------------------------------------
  energy-cutoff  :      520.00
  volume of cell :      356.74
      direct lattice vectors                 reciprocal lattice vectors
     3.887043886  0.000000000  0.000000000     0.257264911  0.000000000  0.000000000
     0.000000000  3.887043886  0.000000000     0.000000000  0.257264911  0.000000000
     0.000000000  0.000000000 23.610648905     0.000000000  0.000000000  0.042353770

  length of vectors
     3.887043886  3.887043886 23.610648905     0.257264911  0.257264911  0.042353770


 FORCES acting on ions
    electron-ion (+dipol)            ewald-force                    non-local-force                 convergence-correction
 -----------------------------------------------------------------------------------------------
   0.148E-14 0.145E-13 -.849E+02   0.220E-14 0.479E-14 0.844E+02   0.108E-18 0.000E+00 0.649E+00   0.754E-14 0.111E-13 -.173E-01
   0.289E-14 -.396E-13 0.849E+02   0.178E-15 0.488E-14 -.844E+02   -.108E-18 0.000E+00 -.649E+00   -.228E-15 0.252E-14 0.173E-01
   -.135E-13 -.122E-12 -.306E+03   -.279E-14 0.949E-14 0.305E+03   -.542E-19 0.000E+00 0.201E+01   0.674E-14 0.135E-13 -.294E+00
   -.829E-14 -.262E-13 -.117E+03   0.250E-14 -.851E-14 0.116E+03   0.000E+00 -.102E-19 0.800E+00   0.164E-13 0.824E-14 -.220E+00
   0.554E-14 -.109E-13 0.117E+03   0.387E-14 -.849E-14 -.116E+03   0.136E-19 0.000E+00 -.800E+00   -.952E-14 0.280E-14 0.220E+00
   -.106E-14 0.887E-13 0.306E+03   -.480E-14 0.103E-13 -.305E+03   0.542E-19 0.000E+00 -.201E+01   -.111E-14 0.185E-14 0.294E+00
   0.567E-13 0.143E-11 -.172E-11   -.415E-14 0.155E-14 0.171E-12   0.000E+00 0.000E+00 0.271E-19   -.125E-14 0.496E-14 -.379E-12
   0.522E-13 0.591E-12 0.834E+02   -.981E-14 0.671E-14 -.829E+02   0.000E+00 -.847E-21 -.598E+00   0.155E-13 0.888E-14 0.186E+00
   0.602E-13 0.476E-12 -.834E+02   -.978E-14 0.672E-14 0.829E+02   0.000E+00 0.424E-21 0.598E+00   -.593E-14 -.531E-14 -.186E+00
   0.598E-13 0.330E-13 0.162E-12   -.313E-13 0.286E-14 -.199E-12   0.000E+00 -.847E-21 -.508E-20   0.271E-14 -.961E-16 0.346E-12
   0.324E-12 0.245E-11 -.709E+02   0.623E-14 -.178E-13 0.707E+02   -.424E-21 0.000E+00 0.199E+00   0.353E-13 0.126E-13 -.844E-01
   0.308E-12 0.137E-11 0.709E+02   0.622E-14 -.178E-13 -.707E+02   0.212E-21 -.265E-22 -.199E+00   0.215E-13 -.152E-13 0.844E-01
   0.967E-13 0.733E-12 0.724E+02   0.274E-14 0.675E-14 -.751E+02   0.169E-20 0.212E-21 0.242E+01   0.327E-13 -.931E-14 0.122E+00
   0.109E-12 0.739E-12 -.724E+02   0.251E-14 0.635E-14 0.751E+02   -.169E-20 0.000E+00 -.242E+01   -.857E-14 -.105E-13 -.122E+00
   0.110E-12 0.167E-11 -.160E+03   0.163E-13 -.702E-14 0.155E+03   -.424E-20 0.000E+00 0.538E+01   0.100E-13 -.162E-13 -.256E+00
   0.101E-12 0.141E-11 0.520E+02   0.329E-14 0.454E-14 -.470E+02   0.339E-20 0.000E+00 -.510E+01   0.176E-13 -.555E-14 0.907E-01
   0.107E-12 0.907E-12 -.520E+02   0.202E-14 0.475E-14 0.470E+02   -.339E-20 0.000E+00 0.510E+01   0.692E-14 -.173E-13 -.907E-01
   0.119E-12 0.775E-12 0.160E+03   0.171E-13 -.708E-14 -.155E+03   0.339E-20 0.000E+00 -.538E+01   0.176E-13 -.978E-14 0.256E+00
   0.121E-12 0.366E-13 0.647E+02   -.223E-14 -.831E-14 -.638E+02   0.000E+00 0.000E+00 -.107E+01   0.110E-13 0.186E-13 0.140E+00
   0.119E-12 0.971E-14 -.376E-11   -.197E-13 0.315E-14 0.156E-12   0.000E+00 0.000E+00 0.678E-20   0.439E-14 0.201E-13 -.315E-12
   0.125E-12 -.146E-13 -.647E+02   -.239E-14 -.812E-14 0.638E+02   0.424E-21 0.000E+00 0.107E+01   0.279E-14 0.280E-13 -.140E+00
   0.121E-12 -.730E-14 -.430E+02   -.110E-13 0.861E-14 0.424E+02   0.000E+00 0.000E+00 0.599E+00   0.971E-14 0.354E-13 -.526E-01
   0.119E-12 0.616E-14 -.807E-12   -.196E-13 0.373E-14 -.256E-12   -.164E-20 0.000E+00 0.339E-20   0.389E-14 0.253E-13 0.346E-12
   0.117E-12 0.439E-13 0.430E+02   -.119E-13 0.843E-14 -.424E+02   -.212E-21 0.000E+00 -.599E+00   -.363E-16 0.582E-13 0.526E-01
   0.533E-15 0.373E-12 0.647E+02   0.142E-13 -.551E-14 -.638E+02   0.106E-20 0.424E-21 -.107E+01   -.122E-13 -.113E-14 0.140E+00
   0.176E-15 0.390E-12 -.236E-11   0.140E-13 0.844E-14 0.128E-12   0.000E+00 -.339E-20 -.169E-20   0.750E-14 -.457E-14 -.306E-12
   -.127E-14 0.203E-12 -.647E+02   0.140E-13 -.538E-14 0.638E+02   -.847E-21 0.000E+00 0.107E+01   0.132E-13 -.469E-14 -.140E+00
   -.594E-14 0.217E-12 -.430E+02   0.127E-13 -.545E-14 0.424E+02   -.339E-20 0.000E+00 0.599E+00   -.326E-14 -.895E-14 -.526E-01
   0.941E-15 0.133E-12 -.253E-11   0.262E-13 -.877E-14 -.227E-12   0.000E+00 0.000E+00 0.169E-19   -.545E-15 -.529E-14 0.357E-12
   0.115E-13 0.113E-12 0.430E+02   0.118E-13 -.561E-14 -.424E+02   0.678E-20 0.000E+00 -.599E+00   -.229E-16 -.663E-14 0.526E-01
 -----------------------------------------------------------------------------------------------
   0.222E-11 0.140E-10 -.539E-10   0.285E-13 -.119E-13 -.583E-12   0.147E-19 -.142E-19 -.333E-14   0.200E-12 0.132E-12 0.703E-12
 
 
 POSITION                                       TOTAL-FORCE (eV/Angst)
 -----------------------------------------------------------------------------------
      0.00000      0.00000      3.85310        -0.000000     -0.000000      0.161190
      0.00000      0.00000      7.95222        -0.000000     -0.000000     -0.161190
      0.00000      0.00000     11.59090        -0.000000      0.000000      0.008977
      0.00000      0.00000     15.68210        -0.000000     -0.000000     -0.160649
      0.00000      0.00000     19.73388        -0.000000     -0.000000      0.160649
      0.00000      0.00000      0.21443        -0.000000      0.000000     -0.008977
      1.94352      1.94352     17.70799        -0.000000     -0.000000     -0.000000
      1.94352      1.94352     21.66696        -0.000000     -0.000000      0.084290
      1.94352      1.94352     13.74901        -0.000000     -0.000000     -0.084290
      1.94352      1.94352      5.90266        -0.000000     -0.000000     -0.000000
      1.94352      1.94352      9.82761        -0.000000      0.000000     -0.061143
      1.94352      1.94352      1.97772        -0.000000     -0.000000      0.061143
      1.94352      1.94352     19.72619        -0.000000     -0.000000     -0.103752
      1.94352      1.94352     15.68978        -0.000000      0.000000      0.103752
      1.94352      1.94352     11.84955        -0.000000      0.000000      0.029591
      1.94352      1.94352      7.81084        -0.000000     -0.000000      0.056139
      1.94352      1.94352      3.99448        -0.000000      0.000000     -0.056139
      1.94352      1.94352     23.56642        -0.000000     -0.000000     -0.029591
      1.94352      0.00000     21.58102        -0.000000     -0.000000     -0.040010
      1.94352      0.00000     17.70799        -0.000000     -0.000000     -0.000000
      1.94352      0.00000     13.83496        -0.000000     -0.000000      0.040010
      1.94352      0.00000      9.85080        -0.000000      0.000000     -0.055863
      1.94352      0.00000      5.90266        -0.000000     -0.000000     -0.000000
      1.94352      0.00000      1.95453        -0.000000     -0.000000      0.055863
      0.00000      1.94352     21.58102         0.000000     -0.000000     -0.040010
      0.00000      1.94352     17.70799        -0.000000     -0.000000     -0.000000
      0.00000      1.94352     13.83496        -0.000000     -0.000000      0.040010
      0.00000      1.94352      9.85080        -0.000000     -0.000000     -0.055863
      0.00000      1.94352      5.90266        -0.000000     -0.000000     -0.000000
      0.00000      1.94352      1.95453        -0.000000     -0.000000      0.055863
 -----------------------------------------------------------------------------------
    total drift:                                0.000000      0.000000     -0.000000


--------------------------------------------------------------------------------------------------------



  FREE ENERGIE OF THE ION-ELECTRON SYSTEM (eV)
  ---------------------------------------------------
  free  energy   TOTEN  =      -226.44211447 eV

  energy  without entropy=     -226.44211447  energy(sigma->0) =     -226.44211447
 


--------------------------------------------------------------------------------------------------------


    POTLOK:  cpu time    0.0872: real time    0.0874


--------------------------------------------------------------------------------------------------------


     LOOP+:  cpu time   57.7382: real time   57.9738
    4ORBIT:  cpu time    0.0000: real time    0.0000
 


 total charge     
 
# of ion       s       p       d       f       tot
--------------------------------------------------
    1        2.000   5.696   0.480   0.185   8.361
    2        2.000   5.696   0.480   0.185   8.361
    3        2.002   5.694   0.501   0.190   8.388
    4        2.001   5.699   0.494   0.190   8.383
    5        2.001   5.699   0.494   0.190   8.383
    6        2.003   5.694   0.501   0.190   8.388
    7        0.308   0.457   4.897   0.000   5.663
    8        0.331   0.508   4.874   0.000   5.713
    9        0.331   0.508   4.874   0.000   5.713
   10        0.336   0.516   4.864   0.000   5.716
   11        0.405   0.590   8.336   0.000   9.331
   12        0.405   0.590   8.336   0.000   9.331
   13        1.564   3.455   0.000   0.000   5.020
   14        1.564   3.455   0.000   0.000   5.020
   15        1.561   3.448   0.000   0.000   5.009
   16        1.561   3.449   0.000   0.000   5.010
   17        1.561   3.449   0.000   0.000   5.010
   18        1.561   3.448   0.000   0.000   5.009
   19        1.559   3.522   0.000   0.000   5.081
   20        1.556   3.534   0.000   0.000   5.090
   21        1.559   3.522   0.000   0.000   5.081
   22        1.555   3.505   0.000   0.000   5.060
   23        1.559   3.511   0.000   0.000   5.070
   24        1.555   3.504   0.000   0.000   5.060
   25        1.570   3.385   0.000   0.000   4.955
   26        1.568   3.384   0.000   0.000   4.953
   27        1.570   3.385   0.000   0.000   4.955
   28        1.559   3.424   0.000   0.000   4.983
   29        1.571   3.382   0.000   0.000   4.952
   30        1.559   3.424   0.000   0.000   4.982
--------------------------------------------------
tot         42.236  99.534  39.130   1.132 182.031

 


 magnetization (x)
 
# of ion       s       p       d       f       tot
--------------------------------------------------
    1        0.001  -0.000   0.009   0.004   0.014
    2        0.001  -0.000   0.009   0.004   0.014
    3        0.001  -0.000   0.006   0.004   0.010
    4        0.001   0.001   0.014   0.007   0.022
    5        0.001   0.001   0.014   0.007   0.022
    6        0.001  -0.000   0.006   0.004   0.010
    7        0.023   0.020   3.808   0.000   3.851
    8        0.024   0.025   3.565   0.000   3.614
    9        0.024   0.025   3.564   0.000   3.614
   10        0.025   0.025   3.489   0.000   3.539
   11        0.016   0.013   1.646   0.000   1.675
   12        0.016   0.013   1.646   0.000   1.675
   13        0.006  -0.035   0.000   0.000  -0.028
   14        0.006  -0.035   0.000   0.000  -0.028
   15        0.006  -0.008   0.000   0.000  -0.002
   16        0.005  -0.015   0.000   0.000  -0.010
   17        0.005  -0.015   0.000   0.000  -0.010
   18        0.006  -0.008   0.000   0.000  -0.002
   19        0.009  -0.059   0.000   0.000  -0.050
   20        0.007  -0.046   0.000   0.000  -0.039
   21        0.009  -0.059   0.000   0.000  -0.050
   22        0.011  -0.004   0.000   0.000   0.006
   23        0.009  -0.074   0.000   0.000  -0.065
   24        0.011  -0.004   0.000   0.000   0.006
   25       -0.000  -0.038   0.000   0.000  -0.038
   26       -0.000  -0.043   0.000   0.000  -0.044
   27       -0.000  -0.037   0.000   0.000  -0.038
   28        0.002   0.004   0.000   0.000   0.006
   29       -0.001  -0.040   0.000   0.000  -0.041
   30        0.002   0.004   0.000   0.000   0.006
--------------------------------------------------
tot          0.226  -0.391  17.777   0.029  17.641

 
 BZINTS: Fermi energy:  7.718618;222.000000 electrons
         Band energy:-378.064787;  BLOECHL correction: -0.258132

 total amount of memory used by VASP MPI-rank0    61644. kBytes
=======================================================================

   base      :      30000. kBytes
   nonlr-proj:       6778. kBytes
   fftplans  :       2675. kBytes
   grid      :       7548. kBytes
   one-center:        294. kBytes
   wavefun   :      14349. kBytes
 
  
  
 General timing and accounting informations for this job:
 ========================================================
  
                  Total CPU time used (sec):       64.423
                            User time (sec):       61.966
                          System time (sec):        2.458
                         Elapsed time (sec):       64.784
  
                   Maximum memory used (kb):      103332.
                   Average memory used (kb):           0.
  
                          Minor page faults:        35911
                          Major page faults:            0
                 Voluntary context switches:         1001
