 vasp.5.4.4.18Apr17-6-g9f103f2a35 (build Oct 03 2018 13:58:34) complex          
  
 executed on             LinuxIFC date 2019.06.04  01:18:39
 running on   40 total cores
 distrk:  each k-point on   20 cores,    2 groups
 distr:  one band on NCORES_PER_BAND=  10 cores,    2 groups


--------------------------------------------------------------------------------------------------------


 INCAR:
 POTCAR:    PAW_PBE La 06Sep2000                  
 POTCAR:    PAW_PBE Mn 06Sep2000                  
 POTCAR:    PAW_PBE Ni 02Aug2007                  
 POTCAR:    PAW_PBE O 08Apr2002                   

 ----------------------------------------------------------------------------- 
|                                                                             |
|           W    W    AA    RRRRR   N    N  II  N    N   GGGG   !!!           |
|           W    W   A  A   R    R  NN   N  II  NN   N  G    G  !!!           |
|           W    W  A    A  R    R  N N  N  II  N N  N  G       !!!           |
|           W WW W  AAAAAA  RRRRR   N  N N  II  N  N N  G  GGG   !            |
|           WW  WW  A    A  R   R   N   NN  II  N   NN  G    G                |
|           W    W  A    A  R    R  N    N  II  N    N   GGGG   !!!           |
|                                                                             |
|      You have enabled k-point parallelism (KPAR>1).                         |
|      This developmental code was originally  written by Paul Kent at ORNL,  |
|      and carefully double checked in Vienna.                                |
|      GW as well as linear response parallelism added by Martijn Marsman     |
|      and Georg Kresse.                                                      |
|      Carefully verify results versus KPAR=1.                                |
|      Report problems to Paul Kent and Vienna.                               |
|                                                                             |
 ----------------------------------------------------------------------------- 

 POTCAR:    PAW_PBE La 06Sep2000                  
   VRHFIN =La : [core=Kr4d]                                                     
   LEXCH  = PE                                                                  
   EATOM  =   865.9763 eV,   63.6475 Ry                                         
                                                                                
   TITEL  = PAW_PBE La 06Sep2000                                                
   LULTRA =        F    use ultrasoft PP ?                                      
   IUNSCR =        1    unscreen: 0-lin 1-nonlin 2-no                           
   RPACOR =    2.300    partial core radius                                     
   POMASS =  138.900; ZVAL   =   11.000    mass and valenz                      
   RCORE  =    2.800    outmost cutoff radius                                   
   RWIGS  =    2.900; RWIGS  =    1.535    wigner-seitz radius (au A)           
   ENMAX  =  219.292; ENMIN  =  164.469 eV                                      
   RCLOC  =    1.601    cutoff for local pot                                    
   LCOR   =        T    correct aug charges                                     
   LPAW   =        T    paw PP                                                  
   EAUG   =  583.575                                                            
   DEXC   =    0.000                                                            
   RMAX   =    2.853    core radius for proj-oper                               
   RAUG   =    1.300    factor for augmentation sphere                          
   RDEP   =    2.802    radius for radial grids                                 
   RDEPT  =    2.156    core radius for aug-charge                              
                                                                                
   Atomic configuration                                                         
   14 entries                                                                   
     n  l   j            E        occ.                                          
     1  0  0.50    -38741.0879   2.0000                                         
     2  0  0.50     -6166.6801   2.0000                                         
     2  1  1.50     -5526.1593   6.0000                                         
     3  0  0.50     -1319.0200   2.0000                                         
     3  1  1.50     -1114.5963   6.0000                                         
     3  2  2.50      -821.1793  10.0000                                         
     4  0  0.50      -266.3851   2.0000                                         
     4  1  1.50      -199.9276   6.0000                                         
     4  2  2.50      -103.8239  10.0000                                         
     5  0  0.50       -38.9172   2.0000                                         
     6  0  0.50        -3.6792   2.0000                                         
     5  1  1.50       -22.3948   6.0000                                         
     5  2  2.50        -3.0911   0.9999                                         
     4  3  2.50        -4.3603   0.0001                                         
   Description                                                                  
     l       E           TYP  RCUT    TYP  RCUT                                 
     0    -38.9171645     23  2.800                                             
     0     -3.6792381     23  2.800                                             
     1    -22.3948300     23  2.500                                             
     1     27.2116520     23  2.500                                             
     2     -3.0910934     23  2.500                                             
     2      1.0119135     23  2.500                                             
     3     -4.3602911     23  2.800                                             
     3     -5.7208737     23  2.800                                             
  local pseudopotential read in
  partial core-charges read in
  partial kinetic energy density read in
  atomic valenz-charges read in
  non local Contribution for L=           0  read in
    real space projection operators read in
  non local Contribution for L=           0  read in
    real space projection operators read in
  non local Contribution for L=           1  read in
    real space projection operators read in
  non local Contribution for L=           1  read in
    real space projection operators read in
  non local Contribution for L=           2  read in
    real space projection operators read in
  non local Contribution for L=           2  read in
    real space projection operators read in
  non local Contribution for L=           3  read in
    real space projection operators read in
  non local Contribution for L=           3  read in
    real space projection operators read in
    PAW grid and wavefunctions read in
 
   number of l-projection  operators is LMAX  =           8
   number of lm-projection operators is LMMAX =          32
 
 POTCAR:    PAW_PBE Mn 06Sep2000                  
   VRHFIN =Mn: d6 s1                                                            
   LEXCH  = PE                                                                  
   EATOM  =   416.7541 eV,   30.6306 Ry                                         
                                                                                
   TITEL  = PAW_PBE Mn 06Sep2000                                                
   LULTRA =        F    use ultrasoft PP ?                                      
   IUNSCR =        1    unscreen: 0-lin 1-nonlin 2-no                           
   RPACOR =    2.000    partial core radius                                     
   POMASS =   54.938; ZVAL   =    7.000    mass and valenz                      
   RCORE  =    2.300    outmost cutoff radius                                   
   RWIGS  =    2.500; RWIGS  =    1.323    wigner-seitz radius (au A)           
   ENMAX  =  269.864; ENMIN  =  202.398 eV                                      
   RCLOC  =    1.725    cutoff for local pot                                    
   LCOR   =        T    correct aug charges                                     
   LPAW   =        T    paw PP                                                  
   EAUG   =  500.711                                                            
   DEXC   =    0.000                                                            
   RMAX   =    2.343    core radius for proj-oper                               
   RAUG   =    1.300    factor for augmentation sphere                          
   RDEP   =    2.338    radius for radial grids                                 
   RDEPT  =    1.911    core radius for aug-charge                              
                                                                                
   Atomic configuration                                                         
    9 entries                                                                   
     n  l   j            E        occ.                                          
     1  0  0.50     -6424.8288   2.0000                                         
     2  0  0.50      -739.1154   2.0000                                         
     2  1  1.50      -625.3949   6.0000                                         
     3  0  0.50       -81.6100   2.0000                                         
     3  1  1.50       -50.4667   6.0000                                         
     3  2  2.50        -3.3745   6.0000                                         
     4  0  0.50        -4.1331   1.0000                                         
     4  1  0.50        -4.0817   0.0000                                         
     4  3  2.50        -1.3606   0.0000                                         
   Description                                                                  
     l       E           TYP  RCUT    TYP  RCUT                                 
     2     -3.3744664     23  2.300                                             
     2     -4.7350490     23  2.300                                             
     0     -4.1331408     23  2.300                                             
     0      7.6656614     23  2.300                                             
     1     -2.7211652     23  2.300                                             
     1     20.4087390     23  2.300                                             
  local pseudopotential read in
  partial core-charges read in
  partial kinetic energy density read in
  atomic valenz-charges read in
  non local Contribution for L=           2  read in
    real space projection operators read in
  non local Contribution for L=           2  read in
    real space projection operators read in
  non local Contribution for L=           0  read in
    real space projection operators read in
  non local Contribution for L=           0  read in
    real space projection operators read in
  non local Contribution for L=           1  read in
    real space projection operators read in
  non local Contribution for L=           1  read in
    real space projection operators read in
    PAW grid and wavefunctions read in
 
   number of l-projection  operators is LMAX  =           6
   number of lm-projection operators is LMMAX =          18
 
 POTCAR:    PAW_PBE Ni 02Aug2007                  
   VRHFIN =Ni:                                                                  
   LEXCH  = PE                                                                  
   EATOM  =  1077.6739 eV,   79.2068 Ry                                         
                                                                                
   TITEL  = PAW_PBE Ni 02Aug2007                                                
   LULTRA =        F    use ultrasoft PP ?                                      
   IUNSCR =        1    unscreen: 0-lin 1-nonlin 2-no                           
   RPACOR =    2.000    partial core radius                                     
   POMASS =   58.690; ZVAL   =   10.000    mass and valenz                      
   RCORE  =    2.300    outmost cutoff radius                                   
   RWIGS  =    2.430; RWIGS  =    1.286    wigner-seitz radius (au A)           
   ENMAX  =  269.532; ENMIN  =  202.149 eV                                      
   RCLOC  =    1.201    cutoff for local pot                                    
   LCOR   =        T    correct aug charges                                     
   LPAW   =        T    paw PP                                                  
   EAUG   =  544.565                                                            
   DEXC   =    0.000                                                            
   RMAX   =    2.357    core radius for proj-oper                               
   RAUG   =    1.300    factor for augmentation sphere                          
   RDEP   =    2.390    radius for radial grids                                 
   RDEPT  =    1.838    core radius for aug-charge                              
                                                                                
   Atomic configuration                                                         
    9 entries                                                                   
     n  l   j            E        occ.                                          
     1  0  0.50     -8206.4253   2.0000                                         
     2  0  0.50      -976.1748   2.0000                                         
     2  1  1.50      -839.0571   6.0000                                         
     3  0  0.50      -105.9991   2.0000                                         
     3  1  1.50       -66.4603   6.0000                                         
     3  2  2.50        -4.6458   9.0000                                         
     4  0  0.50        -4.4926   1.0000                                         
     4  1  1.50        -4.0817   0.0000                                         
     4  3  2.50        -1.3606   0.0000                                         
   Description                                                                  
     l       E           TYP  RCUT    TYP  RCUT                                 
     2     -4.6457903     23  2.300                                             
     2     -6.0063729     23  2.300                                             
     0     -4.4925590     23  2.300                                             
     0      5.0102601     23  2.300                                             
     1     -2.7211652     23  2.300                                             
     1     16.5183231     23  2.300                                             
  local pseudopotential read in
  partial core-charges read in
  partial kinetic energy density read in
  atomic valenz-charges read in
  non local Contribution for L=           2  read in
    real space projection operators read in
  non local Contribution for L=           2  read in
    real space projection operators read in
  non local Contribution for L=           0  read in
    real space projection operators read in
  non local Contribution for L=           0  read in
    real space projection operators read in
  non local Contribution for L=           1  read in
    real space projection operators read in
  non local Contribution for L=           1  read in
    real space projection operators read in
    PAW grid and wavefunctions read in
 
   number of l-projection  operators is LMAX  =           6
   number of lm-projection operators is LMMAX =          18
 
 POTCAR:    PAW_PBE O 08Apr2002                   
   VRHFIN =O: s2p4                                                              
   LEXCH  = PE                                                                  
   EATOM  =   432.3788 eV,   31.7789 Ry                                         
                                                                                
   TITEL  = PAW_PBE O 08Apr2002                                                 
   LULTRA =        F    use ultrasoft PP ?                                      
   IUNSCR =        1    unscreen: 0-lin 1-nonlin 2-no                           
   RPACOR =    1.200    partial core radius                                     
   POMASS =   16.000; ZVAL   =    6.000    mass and valenz                      
   RCORE  =    1.520    outmost cutoff radius                                   
   RWIGS  =    1.550; RWIGS  =    0.820    wigner-seitz radius (au A)           
   ENMAX  =  400.000; ENMIN  =  300.000 eV                                      
   ICORE  =        2    local potential                                         
   LCOR   =        T    correct aug charges                                     
   LPAW   =        T    paw PP                                                  
   EAUG   =  605.392                                                            
   DEXC   =    0.000                                                            
   RMAX   =    1.553    core radius for proj-oper                               
   RAUG   =    1.300    factor for augmentation sphere                          
   RDEP   =    1.550    radius for radial grids                                 
   RDEPT  =    1.329    core radius for aug-charge                              
                                                                                
   Atomic configuration                                                         
    4 entries                                                                   
     n  l   j            E        occ.                                          
     1  0  0.50      -514.6923   2.0000                                         
     2  0  0.50       -23.9615   2.0000                                         
     2  1  0.50        -9.0305   4.0000                                         
     3  2  1.50        -9.5241   0.0000                                         
   Description                                                                  
     l       E           TYP  RCUT    TYP  RCUT                                 
     0    -23.9615318     23  1.200                                             
     0     -9.5240782     23  1.200                                             
     1     -9.0304911     23  1.520                                             
     1      8.1634956     23  1.520                                             
     2     -9.5240782      7  1.500                                             
  local pseudopotential read in
  partial core-charges read in
  partial kinetic energy density read in
  kinetic energy density of atom read in
  atomic valenz-charges read in
  non local Contribution for L=           0  read in
    real space projection operators read in
  non local Contribution for L=           0  read in
    real space projection operators read in
  non local Contribution for L=           1  read in
    real space projection operators read in
  non local Contribution for L=           1  read in
    real space projection operators read in
    PAW grid and wavefunctions read in
 
   number of l-projection  operators is LMAX  =           4
   number of lm-projection operators is LMMAX =           8
 
 Optimization of the real space projectors (new method)

 maximal supplied QI-value         = 13.42
 optimisation between [QCUT,QGAM] = [ 11.67, 23.35] = [ 38.16,152.62] Ry 
 Optimized for a Real-space Cutoff    1.63 Angstroem

   l    n(q)    QCUT    max X(q) W(low)/X(q) W(high)/X(q)  e(spline) 
   0     11    11.673    13.882    0.27E-04    0.79E-05    0.11E-06
   0     11    11.673    12.184    0.39E-04    0.13E-04    0.19E-06
   1     11    11.673     4.523    0.73E-05    0.76E-05    0.12E-06
   1     11    11.673     4.424    0.87E-05    0.13E-04    0.19E-06
   2     10    11.673    52.481    0.65E-04    0.36E-04    0.18E-06
   2     10    11.673    38.501    0.61E-04    0.33E-04    0.17E-06
   3     10    11.673    65.631    0.17E-03    0.14E-03    0.37E-06
   3     10    11.673    56.854    0.17E-03    0.14E-03    0.37E-06
 Optimization of the real space projectors (new method)

 maximal supplied QI-value         = 16.25
 optimisation between [QCUT,QGAM] = [ 11.54, 23.24] = [ 37.28,151.24] Ry 
 Optimized for a Real-space Cutoff    1.53 Angstroem

   l    n(q)    QCUT    max X(q) W(low)/X(q) W(high)/X(q)  e(spline) 
   2     10    11.539   110.144    0.12E-03    0.13E-03    0.25E-06
   2     10    11.539   103.200    0.12E-03    0.13E-03    0.25E-06
   0     11    11.539    68.437    0.46E-04    0.21E-04    0.32E-06
   0     11    11.539    33.971    0.37E-04    0.19E-04    0.29E-06
   1     10    11.539    17.065    0.51E-04    0.22E-04    0.13E-06
   1     10    11.539    12.540    0.41E-04    0.18E-04    0.11E-06
 Optimization of the real space projectors (new method)

 maximal supplied QI-value         = 16.25
 optimisation between [QCUT,QGAM] = [ 11.54, 23.24] = [ 37.28,151.24] Ry 
 Optimized for a Real-space Cutoff    1.45 Angstroem

   l    n(q)    QCUT    max X(q) W(low)/X(q) W(high)/X(q)  e(spline) 
   2      9    11.539    60.317    0.19E-03    0.47E-04    0.16E-06
   2      9    11.539    55.921    0.19E-03    0.48E-04    0.16E-06
   0     10    11.539    51.690    0.80E-04    0.50E-04    0.24E-06
   0     10    11.539    30.015    0.73E-04    0.45E-04    0.22E-06
   1     10    11.539    18.849    0.87E-04    0.16E-03    0.71E-07
   1     10    11.539    14.624    0.73E-04    0.13E-03    0.64E-07
 Optimization of the real space projectors (new method)

 maximal supplied QI-value         = 24.76
 optimisation between [QCUT,QGAM] = [ 11.64, 23.27] = [ 37.91,151.63] Ry 
 Optimized for a Real-space Cutoff    1.14 Angstroem

   l    n(q)    QCUT    max X(q) W(low)/X(q) W(high)/X(q)  e(spline) 
   0      8    11.635    20.381    0.10E-03    0.33E-03    0.24E-06
   0      8    11.635    15.268    0.11E-03    0.35E-03    0.26E-06
   1      7    11.635     5.964    0.24E-03    0.31E-03    0.30E-06
   1      7    11.635     5.382    0.22E-03    0.25E-03    0.26E-06
  PAW_PBE La 06Sep2000                  :
 energy of atom  1       EATOM= -865.9763
 kinetic energy error for atom=    0.0009 (will be added to EATOM!!)
  PAW_PBE Mn 06Sep2000                  :
 energy of atom  2       EATOM= -416.7541
 kinetic energy error for atom=    0.0024 (will be added to EATOM!!)
  PAW_PBE Ni 02Aug2007                  :
 energy of atom  3       EATOM=-1077.6739
 kinetic energy error for atom=    0.0030 (will be added to EATOM!!)
  PAW_PBE O 08Apr2002                   :
 energy of atom  4       EATOM= -432.3788
 kinetic energy error for atom=    0.0208 (will be added to EATOM!!)
 
 
 POSCAR: SCEL6_2_1_3_0_0_1/0                     
  positions in direct lattice
  velocities in cartesian coordinates
 exchange correlation table for  LEXCH =        8
   RHO(1)=    0.500       N(1)  =     2000
   RHO(2)=  100.500       N(2)  =     4000
 


--------------------------------------------------------------------------------------------------------


 ion  position               nearest neighbor table
   1  0.500  0.500  0.333-  17 2.76  17 2.76  14 2.76  14 2.76  25 2.76  28 2.76  19 2.76  22 2.76
                            23 2.76  29 2.76  20 2.76  26 2.76   8 3.39   8 3.39  11 3.39  11 3.39
   2  0.000  0.000  0.671-  21 2.73  24 2.73  27 2.73  30 2.73  16 2.76  16 2.76  13 2.76  13 2.76
                            28 2.82  19 2.82  25 2.82  22 2.82   9 3.36   9 3.36  12 3.36  12 3.36
   3  0.500  0.500  0.995-  21 2.73  24 2.73  27 2.73  30 2.73  18 2.76  18 2.76  15 2.76  15 2.76
                            29 2.82  20 2.82  26 2.82  23 2.82  12 3.36  12 3.36   9 3.36   9 3.36
   4  0.000  0.000  0.333-  17 2.76  17 2.76  14 2.76  14 2.76  25 2.76  28 2.76  19 2.76  22 2.76
                            23 2.76  29 2.76  20 2.76  26 2.76   8 3.39   8 3.39  11 3.39  11 3.39
   5  0.500  0.500  0.671-  21 2.73  24 2.73  27 2.73  30 2.73  16 2.76  16 2.76  13 2.76  13 2.76
                            28 2.82  19 2.82  25 2.82  22 2.82   9 3.36   9 3.36  12 3.36  12 3.36
   6  0.000  0.000  0.995-  21 2.73  24 2.73  27 2.73  30 2.73  18 2.76  18 2.76  15 2.76  15 2.76
                            29 2.82  20 2.82  26 2.82  23 2.82  12 3.36  12 3.36   9 3.36   9 3.36
   7  0.500  0.000  0.166-  20 1.95  23 1.95  26 1.95  29 1.95  18 1.96  14 1.98   1 3.40   4 3.40
                             1 3.40   4 3.40   3 3.42   3 3.42   6 3.42   6 3.42
   8  0.000  0.500  0.500-  19 1.95  22 1.95  25 1.95  28 1.95  13 1.96  17 1.97   1 3.39   4 3.39
                             4 3.39   1 3.39   2 3.42   2 3.42   5 3.42   5 3.42
   9  0.000  0.500  0.833-  21 1.92  24 1.92  27 1.92  30 1.92  15 1.98  13 1.98   3 3.36   6 3.36
                             6 3.36   3 3.36   2 3.36   5 3.36   2 3.36   5 3.36
  10  0.500  0.000  0.501-  19 1.95  22 1.95  25 1.95  28 1.95  16 1.96  14 1.98   1 3.40   4 3.40
                             1 3.40   4 3.40   2 3.42   5 3.42   2 3.42   5 3.42
  11  0.000  0.500  0.167-  20 1.95  23 1.95  26 1.95  29 1.95  15 1.96  17 1.97   1 3.39   4 3.39
                             4 3.39   1 3.39   3 3.42   6 3.42   6 3.42   3 3.42
  12  0.500  0.000  0.833-  18 1.97  16 1.97  21 1.99  24 1.99  27 1.99  30 1.99   3 3.36   6 3.36
                             3 3.36   6 3.36   5 3.36   5 3.36   2 3.36   2 3.36
  13  0.000  0.500  0.666-   8 1.96   9 1.98   2 2.76   5 2.76   2 2.76   5 2.76
  14  0.500  0.000  0.333-   7 1.98  10 1.98   1 2.76   4 2.76   1 2.76   4 2.76
  15  0.000  0.500  0.001-  11 1.96   9 1.98   3 2.76   6 2.76   6 2.76   3 2.76
  16  0.500  0.000  0.667-  10 1.96  12 1.97   2 2.76   5 2.76   5 2.76   2 2.76
  17  0.000  0.500  0.333-   8 1.97  11 1.97   1 2.76   4 2.76   4 2.76   1 2.76
  18  0.500  0.000  1.000-   7 1.96  12 1.97   3 2.76   6 2.76   3 2.76   6 2.76
  19  0.750  0.750  0.499-  10 1.95   8 1.95   1 2.76   4 2.76   2 2.82   5 2.82
  20  0.250  0.250  0.168-   7 1.95  11 1.95   1 2.76   4 2.76   3 2.82   6 2.82
  21  0.755  0.745  0.833-   9 1.92  12 1.99   3 2.73   6 2.73   5 2.73   2 2.73
  22  0.250  0.250  0.499-  10 1.95   8 1.95   1 2.76   4 2.76   2 2.82   5 2.82
  23  0.750  0.750  0.168-   7 1.95  11 1.95   1 2.76   4 2.76   3 2.82   6 2.82
  24  0.245  0.255  0.833-   9 1.92  12 1.99   3 2.73   6 2.73   5 2.73   2 2.73
  25  0.750  0.250  0.499-  10 1.95   8 1.95   1 2.76   4 2.76   2 2.82   5 2.82
  26  0.250  0.750  0.168-   7 1.95  11 1.95   1 2.76   4 2.76   3 2.82   6 2.82
  27  0.755  0.255  0.833-   9 1.92  12 1.99   3 2.73   6 2.73   5 2.73   2 2.73
  28  0.250  0.750  0.499-  10 1.95   8 1.95   1 2.76   4 2.76   2 2.82   5 2.82
  29  0.750  0.250  0.168-   7 1.95  11 1.95   1 2.76   4 2.76   3 2.82   6 2.82
  30  0.245  0.745  0.833-   9 1.92  12 1.99   3 2.73   6 2.73   5 2.73   2 2.73
 
  LATTYP: Found a simple tetragonal cell.
 ALAT       =     5.5219606636
 C/A-ratio  =     2.1384667960
  
  Lattice vectors:
  
 A1 = (   3.9046158307,   3.9046158307,   0.0000000000)
 A2 = (   3.9046158307,  -3.9046158307,   0.0000000000)
 A3 = (   0.0000000000,   0.0000000000, -11.8085295279)


Analysis of symmetry for initial positions (statically):
=====================================================================
 Subroutine PRICEL returns:
 Original cell was already a primitive cell.
 

 Routine SETGRP: Setting up the symmetry group for a 
 simple tetragonal supercell.


 Subroutine GETGRP returns: Found  8 space group operations
 (whereof  4 operations were pure point group operations)
 out of a pool of 16 trial point group operations.


The static configuration has the point symmetry C_2v.
 The point group associated with its full space group is C_4v.


Analysis of symmetry for dynamics (positions and initial velocities):
=====================================================================
 Subroutine PRICEL returns:
 Original cell was already a primitive cell.
 

 Routine SETGRP: Setting up the symmetry group for a 
 simple tetragonal supercell.


 Subroutine GETGRP returns: Found  8 space group operations
 (whereof  4 operations were pure point group operations)
 out of a pool of 16 trial point group operations.


The dynamic configuration has the point symmetry C_2v.
 The point group associated with its full space group is C_4v.


Analysis of structural, dynamic, and magnetic symmetry:
=====================================================================
 Subroutine PRICEL returns:
 Original cell was already a primitive cell.
 

 Routine SETGRP: Setting up the symmetry group for a 
 simple tetragonal supercell.


 Subroutine GETGRP returns: Found  8 space group operations
 (whereof  4 operations were pure point group operations)
 out of a pool of 16 trial point group operations.


The magnetic configuration has the point symmetry C_2v.
 The point group associated with its full space group is C_4v.


 Subroutine INISYM returns: Found  8 space group operations
 (whereof  4 operations are pure point group operations),
 and found     1 'primitive' translations

 
 
 KPOINTS: Automatic mesh                          

Automatic generation of k-mesh.
 generate k-points for:    4    4    2
Space group operators:
 irot       det(A)        alpha          n_x          n_y          n_z        tau_x        tau_y        tau_z
    1     1.000000     0.000000     1.000000     0.000000     0.000000     0.000000     0.000000     0.000000
    2     1.000000   180.000000     0.000000     0.000000     1.000000     0.000000     0.000000     0.000000
    3    -1.000000   180.000000     0.707107    -0.707107     0.000000     0.000000     0.000000     0.000000
    4    -1.000000   180.000000     0.707107     0.707107     0.000000     0.000000     0.000000     0.000000
    5     1.000000    90.000000     0.000000     0.000000     1.000000     0.500000     0.500000     0.000000
    6     1.000000    90.000000     0.000000     0.000000    -1.000000     0.500000     0.500000     0.000000
    7    -1.000000   180.000000     1.000000     0.000000     0.000000     0.500000     0.500000     0.000000
    8    -1.000000   180.000000     0.000000     1.000000     0.000000     0.500000     0.500000     0.000000
 
 Subroutine IBZKPT returns following result:
 ===========================================
 
 Found     12 irreducible k-points:
 
 Following reciprocal coordinates:
            Coordinates               Weight
  0.000000  0.000000  0.000000      1.000000
  0.250000  0.000000  0.000000      4.000000
  0.500000  0.000000  0.000000      2.000000
  0.250000  0.250000  0.000000      4.000000
  0.500000  0.250000  0.000000      4.000000
  0.500000  0.500000  0.000000      1.000000
  0.000000  0.000000  0.500000      1.000000
  0.250000  0.000000  0.500000      4.000000
  0.500000  0.000000  0.500000      2.000000
  0.250000  0.250000  0.500000      4.000000
  0.500000  0.250000  0.500000      4.000000
  0.500000  0.500000  0.500000      1.000000
 
 Following cartesian coordinates:
            Coordinates               Weight
  0.000000  0.000000  0.000000      1.000000
  0.032013  0.032013  0.000000      4.000000
  0.064027  0.064027  0.000000      2.000000
  0.064027  0.000000  0.000000      4.000000
  0.096040  0.032013  0.000000      4.000000
  0.128054  0.000000  0.000000      1.000000
  0.000000  0.000000 -0.042342      1.000000
  0.032013  0.032013 -0.042342      4.000000
  0.064027  0.064027 -0.042342      2.000000
  0.064027  0.000000 -0.042342      4.000000
  0.096040  0.032013 -0.042342      4.000000
  0.128054  0.000000 -0.042342      1.000000
 
 TETIRR: Found     48 inequivalent tetrahedra from      192


--------------------------------------------------------------------------------------------------------




 Dimension of arrays:
   k-points           NKPTS =     12   k-points in BZ     NKDIM =     12   number of bands    NBANDS=    144
   number of dos      NEDOS =    301   number of ions     NIONS =     30
   non local maximal  LDIM  =      8   non local SUM 2l+1 LMDIM =     32
   total plane-waves  NPLWV = 158760
   max r-space proj   IRMAX =   8007   max aug-charges    IRDMAX=  23236
   dimension x,y,z NGX =    42 NGY =   42 NGZ =   90
   dimension x,y,z NGXF=    84 NGYF=   84 NGZF=  180
   support grid    NGXF=    84 NGYF=   84 NGZF=  180
   ions per type =               6   5   1  18
   NGX,Y,Z   is equivalent  to a cutoff of  12.64, 12.64, 12.67 a.u.
   NGXF,Y,Z  is equivalent  to a cutoff of  25.29, 25.29, 25.34 a.u.

 SYSTEM =  final                                   
 POSCAR =  SCEL6_2_1_3_0_0_1/0                     

 Startparameter for this run:
   NWRITE =      2    write-flag & timer
   PREC   = accura    normal or accurate (medium, high low for compatibility)
   ISTART =      0    job   : 0-new  1-cont  2-samecut
   ICHARG =      1    charge: 1-file 2-atom 10-const
   ISPIN  =      2    spin polarized calculation?
   LNONCOLLINEAR =      F non collinear calculations
   LSORBIT =      F    spin-orbit coupling
   INIWAV =      1    electr: 0-lowe 1-rand  2-diag
   LASPH  =      F    aspherical Exc in radial PAW
   METAGGA=      F    non-selfconsistent MetaGGA calc.

 Electronic Relaxation 1
   ENCUT  =  520.0 eV  38.22 Ry    6.18 a.u.  10.27 10.27 21.96*2*pi/ulx,y,z
   ENINI  =  520.0     initial cutoff
   ENAUG  =  605.4 eV  augmentation charge cutoff
   NELM   =    100;   NELMIN=  2; NELMDL= -5     # of ELM steps 
   EDIFF  = 0.1E-02   stopping-criterion for ELM
   LREAL  =      T    real-space projection
   NLSPLINE    = F    spline interpolate recip. space projectors
   LCOMPAT=      F    compatible to vasp.4.4
   GGA_COMPAT  = T    GGA compatible to vasp.4.4-vasp.4.6
   LMAXPAW     = -100 max onsite density
   LMAXMIX     =    6 max onsite mixed and CHGCAR
   VOSKOWN=      0    Vosko Wilk Nusair interpolation
   ROPT   =   -0.00025  -0.00025  -0.00025  -0.00025
 Ionic relaxation
   EDIFFG = 0.1E-01   stopping-criterion for IOM
   NSW    =      0    number of steps for IOM
   NBLOCK =      1;   KBLOCK =      1    inner block; outer block 
   IBRION =     -1    ionic relax: 0-MD 1-quasi-New 2-CG
   NFREE  =      0    steps in history (QN), initial steepest desc. (CG)
   ISIF   =      2    stress and relaxation
   IWAVPR =     10    prediction:  0-non 1-charg 2-wave 3-comb
   ISYM   =      2    0-nonsym 1-usesym 2-fastsym
   LCORR  =      T    Harris-Foulkes like correction to forces

   POTIM  = 0.5000    time-step for ionic-motion
   TEIN   =    0.0    initial temperature
   TEBEG  =    0.0;   TEEND  =   0.0 temperature during run
   SMASS  =  -3.00    Nose mass-parameter (am)
   estimated Nose-frequenzy (Omega)   =  0.10E-29 period in steps =****** mass=  -0.697E-27a.u.
   SCALEE = 1.0000    scale energy and forces
   NPACO  =    256;   APACO  = 16.0  distance and # of slots for P.C.
   PSTRESS=    0.0 pullay stress

  Mass of Ions in am
   POMASS = 138.90 54.94 58.69 16.00
  Ionic Valenz
   ZVAL   =  11.00  7.00 10.00  6.00
  Atomic Wigner-Seitz radii
   RWIGS  =  -1.00 -1.00 -1.00 -1.00
  virtual crystal weights 
   VCA    =   1.00  1.00  1.00  1.00
   NELECT =     219.0000    total number of electrons
   NUPDOWN=      -1.0000    fix difference up-down

 DOS related values:
   EMIN   =  10.00;   EMAX   =-10.00  energy-range for DOS
   EFERMI =   0.00
   ISMEAR =    -5;   SIGMA  =   0.05  broadening in eV -4-tet -1-fermi 0-gaus

 Electronic relaxation 2 (details)
   IALGO  =     68    algorithm
   LDIAG  =      T    sub-space diagonalisation (order eigenvalues)
   LSUBROT=      F    optimize rotation matrix (better conditioning)
   TURBO    =      0    0=normal 1=particle mesh
   IRESTART =      0    0=no restart 2=restart with 2 vectors
   NREBOOT  =      0    no. of reboots
   NMIN     =      0    reboot dimension
   EREF     =   0.00    reference energy to select bands
   IMIX   =      4    mixing-type and parameters
     AMIX     =   0.40;   BMIX     =  1.00
     AMIX_MAG =   1.60;   BMIX_MAG =  1.00
     AMIN     =   0.10
     WC   =   100.;   INIMIX=   1;  MIXPRE=   1;  MAXMIX= -45

 Intra band minimization:
   WEIMIN = 0.0000     energy-eigenvalue tresh-hold
   EBREAK =  0.17E-05  absolut break condition
   DEPER  =   0.30     relativ break condition  

   TIME   =   0.40     timestep for ELM

  volume/ion in A,a.u.               =      12.00        80.99
  Fermi-wavevector in a.u.,A,eV,Ry     =   1.387060  2.621164 26.176748  1.923937
  Thomas-Fermi vector in A             =   2.511317
 
 Write flags
   LWAVE        =      F    write WAVECAR
   LDOWNSAMPLE  =      F    k-point downsampling of WAVECAR
   LCHARG       =      T    write CHGCAR
   LVTOT        =      F    write LOCPOT, total local potential
   LVHAR        =      F    write LOCPOT, Hartree potential only
   LELF         =      F    write electronic localiz. function (ELF)
   LORBIT       =     11    0 simple, 1 ext, 2 COOP (PROOUT), +10 PAW based schemes


 Dipole corrections
   LMONO  =      F    monopole corrections only (constant potential shift)
   LDIPOL =      F    correct potential (dipole corrections)
   IDIPOL =      0    1-x, 2-y, 3-z, 4-all directions 
   EPSILON=  1.0000000 bulk dielectric constant

 LDA+U is selected, type is set to LDAUTYPE =  2
   angular momentum for each species LDAUL =     0    2    2    0
   U (eV)           for each species LDAUU =   0.0  3.9  6.2  0.0
   J (eV)           for each species LDAUJ =   0.0  0.0  0.0  0.0
 Exchange correlation treatment:
   GGA     =    --    GGA type
   LEXCH   =     8    internal setting for exchange type
   VOSKOWN=      0    Vosko Wilk Nusair interpolation
   LHFCALC =     F    Hartree Fock is set to
   LHFONE  =     F    Hartree Fock one center treatment
   AEXX    =    0.0000 exact exchange contribution

 Linear response parameters
   LEPSILON=     F    determine dielectric tensor
   LRPA    =     F    only Hartree local field effects (RPA)
   LNABLA  =     F    use nabla operator in PAW spheres
   LVEL    =     F    velocity operator in full k-point grid
   LINTERFAST=   F  fast interpolation
   KINTER  =     0    interpolate to denser k-point grid
   CSHIFT  =0.1000    complex shift for real part using Kramers Kronig
   OMEGAMAX=  -1.0    maximum frequency
   DEG_THRESHOLD= 0.2000000E-02 threshold for treating states as degnerate
   RTIME   =   -0.100 relaxation time in fs
  (WPLASMAI=    0.000 imaginary part of plasma frequency in eV, 0.658/RTIME)
   DFIELD  = 0.0000000 0.0000000 0.0000000 field for delta impulse in time
 
 Orbital magnetization related:
   ORBITALMAG=     F  switch on orbital magnetization
   LCHIMAG   =     F  perturbation theory with respect to B field
   DQ        =  0.001000  dq finite difference perturbation B field
   LLRAUG    =     F  two centre corrections for induced B field



--------------------------------------------------------------------------------------------------------


 Static calculation
 charge density and potential will be updated during run
 spin polarized calculation
 RMM-DIIS sequential band-by-band and
  variant of blocked Davidson during initial phase
 perform sub-space diagonalisation
    before iterative eigenvector-optimisation
 modified Broyden-mixing scheme, WC =      100.0
 initial mixing is a Kerker type mixing with AMIX =  0.4000 and BMIX =      1.0000
 Hartree-type preconditioning will be used
 using additional bands           34
 real space projection scheme for non local part
 use partial core corrections
 calculate Harris-corrections to forces 
   (improved forces if not selfconsistent)
 use gradient corrections 
 use of overlap-Matrix (Vanderbilt PP)
 Fermi weights with tetrahedron method with Bloechl corrections


--------------------------------------------------------------------------------------------------------


  energy-cutoff  :      520.00
  volume of cell :      360.07
      direct lattice vectors                 reciprocal lattice vectors
     3.904615831  3.904615831  0.000000000     0.128053571  0.128053571  0.000000000
     3.904615831 -3.904615831  0.000000000     0.128053571 -0.128053571  0.000000000
     0.000000000  0.000000000-11.808529528     0.000000000  0.000000000 -0.084684549

  length of vectors
     5.521960664  5.521960664 11.808529528     0.181095097  0.181095097  0.084684549


 
 k-points in units of 2pi/SCALE and weight: Automatic mesh                          
   0.00000000  0.00000000  0.00000000       0.031
   0.03201339  0.03201339  0.00000000       0.125
   0.06402679  0.06402679  0.00000000       0.062
   0.06402679  0.00000000  0.00000000       0.125
   0.09604018  0.03201339  0.00000000       0.125
   0.12805357  0.00000000  0.00000000       0.031
   0.00000000  0.00000000 -0.04234227       0.031
   0.03201339  0.03201339 -0.04234227       0.125
   0.06402679  0.06402679 -0.04234227       0.062
   0.06402679  0.00000000 -0.04234227       0.125
   0.09604018  0.03201339 -0.04234227       0.125
   0.12805357  0.00000000 -0.04234227       0.031
 
 k-points in reciprocal lattice and weights: Automatic mesh                          
   0.00000000  0.00000000  0.00000000       0.031
   0.25000000  0.00000000  0.00000000       0.125
   0.50000000  0.00000000  0.00000000       0.062
   0.25000000  0.25000000  0.00000000       0.125
   0.50000000  0.25000000  0.00000000       0.125
   0.50000000  0.50000000  0.00000000       0.031
   0.00000000  0.00000000  0.50000000       0.031
   0.25000000  0.00000000  0.50000000       0.125
   0.50000000  0.00000000  0.50000000       0.062
   0.25000000  0.25000000  0.50000000       0.125
   0.50000000  0.25000000  0.50000000       0.125
   0.50000000  0.50000000  0.50000000       0.031
 
 position of ions in fractional coordinates (direct lattice) 
   0.50000000  0.50000000  0.33345986
   0.00000000  0.00000000  0.67131036
   0.50000000  0.50000000  0.99523915
   0.00000000  0.00000000  0.33345986
   0.50000000  0.50000000  0.67131036
   0.00000000  0.00000000  0.99523915
   0.50000000  0.00000000  0.16564458
   0.00000000  0.50000000  0.49985154
   0.00000000  0.50000000  0.83333203
   0.50000000  0.00000000  0.50102062
   0.00000000  0.50000000  0.16681619
   0.50000000  0.00000000  0.83333409
   0.00000000  0.50000000  0.66559992
   0.50000000  0.00000000  0.33332584
   0.00000000  0.50000000  0.00104247
   0.50000000  0.00000000  0.66685394
   0.00000000  0.50000000  0.33335221
   0.50000000  0.00000000  0.99980952
   0.74995909  0.75004091  0.49886910
   0.25004702  0.24995298  0.16780378
   0.75458400  0.74541600  0.83332670
   0.25004091  0.24995909  0.49886910
   0.74995298  0.75004702  0.16780378
   0.24541600  0.25458400  0.83332670
   0.74995909  0.24995909  0.49886910
   0.25004702  0.75004702  0.16780378
   0.75458400  0.25458400  0.83332670
   0.25004091  0.75004091  0.49886910
   0.74995298  0.24995298  0.16780378
   0.24541600  0.74541600  0.83332670
 
 position of ions in cartesian coordinates  (Angst):
   3.90461583  0.00000000 -3.93767065
   0.00000000  0.00000000 -7.92718816
   3.90461583  0.00000000-11.75231085
   0.00000000  0.00000000 -3.93767065
   3.90461583  0.00000000 -7.92718816
   0.00000000  0.00000000-11.75231085
   1.95230792  1.95230792 -1.95601888
   1.95230792 -1.95230792 -5.90251170
   1.95230792 -1.95230792 -9.84042594
   1.95230792  1.95230792 -5.91631674
   1.95230792 -1.95230792 -1.96985387
   1.95230792  1.95230792 -9.84045026
   1.95230792 -1.95230792 -7.85975627
   1.95230792  1.95230792 -3.93608802
   1.95230792 -1.95230792 -0.01231009
   1.95230792  1.95230792 -7.87456442
   1.95230792 -1.95230792 -3.93639944
   1.95230792  1.95230792-11.80628021
   5.85692375 -0.00031949 -5.89091055
   1.95230792  0.00036722 -1.98151584
   5.85692375  0.03579754 -9.84036294
   1.95230792  0.00031949 -5.89091055
   5.85692375 -0.00036722 -1.98151584
   1.95230792 -0.03579754 -9.84036294
   3.90429634  1.95230792 -5.89091055
   3.90498305 -1.95230792 -1.98151584
   3.94041337  1.95230792 -9.84036294
   3.90493532 -1.95230792 -5.89091055
   3.90424861  1.95230792 -1.98151584
   3.86881829 -1.95230792 -9.84036294
 


--------------------------------------------------------------------------------------------------------


 k-point  1 :   0.0000 0.0000 0.0000  plane waves:    9687
 k-point  2 :   0.2500 0.0000 0.0000  plane waves:    9679
 k-point  3 :   0.5000 0.0000 0.0000  plane waves:    9664
 k-point  4 :   0.2500 0.2500 0.0000  plane waves:    9689
 k-point  5 :   0.5000 0.2500 0.0000  plane waves:    9666
 k-point  6 :   0.5000 0.5000 0.0000  plane waves:    9700
 k-point  7 :   0.0000 0.0000 0.5000  plane waves:    9732
 k-point  8 :   0.2500 0.0000 0.5000  plane waves:    9690
 k-point  9 :   0.5000 0.0000 0.5000  plane waves:    9700
 k-point 10 :   0.2500 0.2500 0.5000  plane waves:    9656
 k-point 11 :   0.5000 0.2500 0.5000  plane waves:    9704
 k-point 12 :   0.5000 0.5000 0.5000  plane waves:    9728

 maximum and minimum number of plane-waves per node :       989      948

 maximum number of plane-waves:      9732
 maximum index in each direction: 
   IXMAX=   10   IYMAX=   10   IZMAX=   21
   IXMIN=  -10   IYMIN=  -10   IZMIN=  -22


 real space projection operators:
  total allocation   :      19942.25 KBytes
  max/ min on nodes  :       2379.20       1788.28


 parallel 3D FFT for wavefunctions:
    minimum data exchange during FFTs selected (reduces bandwidth)
 parallel 3D FFT for charge:
    minimum data exchange during FFTs selected (reduces bandwidth)


 total amount of memory used by VASP MPI-rank0    77839. kBytes
=======================================================================

   base      :      30000. kBytes
   nonlr-proj:       7028. kBytes
   fftplans  :       3031. kBytes
   grid      :       8843. kBytes
   one-center:        294. kBytes
   wavefun   :      28643. kBytes
 
     INWAV:  cpu time    0.0000: real time    0.0001
 Broyden mixing: mesh for mixing (old mesh)
   NGX = 21   NGY = 21   NGZ = 43
  (NGX  = 84   NGY  = 84   NGZ  =180)
  gives a total of  18963 points

 initial charge density was supplied:
 charge density of overlapping atoms calculated
 number of electron     219.0000000 magnetization      23.0000000
 keeping initial charge density in first step


--------------------------------------------------------------------------------------------------------


 Maximum index for non-local projection operator         1128
 Maximum index for augmentation-charges         1864 (set IRDMAX)


--------------------------------------------------------------------------------------------------------


 First call to EWALD:  gamma=   0.249
 Maximum number of real-space cells 3x 3x 2
 Maximum number of reciprocal cells 2x 2x 4

    FEWALD:  cpu time    0.0016: real time    0.0016


--------------------------------------- Iteration      1(   1)  ---------------------------------------


    POTLOK:  cpu time    0.0818: real time    0.0834
    SETDIJ:  cpu time    0.0178: real time    0.0180
atom =   1  type =  1  l = 0
 
 onsite density matrix
 
spin component  1
 
  1.0989
 
spin component  2
 
  1.0989
 
 occupancies and eigenvectors
 
  o =  1.0989  v =  1.0000  0.0000      0.0000  0.0000
  o =  1.0989  v =  0.0000  1.0000      0.0000  0.0000
atom =   2  type =  1  l = 0
 
 onsite density matrix
 
spin component  1
 
  1.0989
 
spin component  2
 
  1.0989
 
 occupancies and eigenvectors
 
  o =  1.0989  v =  1.0000  0.0000      0.0000  0.0000
  o =  1.0989  v =  0.0000  1.0000      0.0000  0.0000
atom =   3  type =  1  l = 0
 
 onsite density matrix
 
spin component  1
 
  1.0989
 
spin component  2
 
  1.0989
 
 occupancies and eigenvectors
 
  o =  1.0989  v =  1.0000  0.0000      0.0000  0.0000
  o =  1.0989  v =  0.0000  1.0000      0.0000  0.0000
atom =   4  type =  1  l = 0
 
 onsite density matrix
 
spin component  1
 
  1.0989
 
spin component  2
 
  1.0989
 
 occupancies and eigenvectors
 
  o =  1.0989  v =  1.0000  0.0000      0.0000  0.0000
  o =  1.0989  v =  0.0000  1.0000      0.0000  0.0000
atom =   5  type =  1  l = 0
 
 onsite density matrix
 
spin component  1
 
  1.0989
 
spin component  2
 
  1.0989
 
 occupancies and eigenvectors
 
  o =  1.0989  v =  1.0000  0.0000      0.0000  0.0000
  o =  1.0989  v =  0.0000  1.0000      0.0000  0.0000
atom =   6  type =  1  l = 0
 
 onsite density matrix
 
spin component  1
 
  1.0989
 
spin component  2
 
  1.0989
 
 occupancies and eigenvectors
 
  o =  1.0989  v =  1.0000  0.0000      0.0000  0.0000
  o =  1.0989  v =  0.0000  1.0000      0.0000  0.0000
atom =   7  type =  2  l = 2
 
 onsite density matrix
 
spin component  1
 
  0.8272  0.0000  0.0000  0.0000  0.0000
  0.0000  0.8272  0.0000  0.0000  0.0000
  0.0000  0.0000  0.8272  0.0000  0.0000
  0.0000  0.0000  0.0000  0.8272  0.0000
  0.0000  0.0000  0.0000  0.0000  0.8272
 
spin component  2
 
  0.2256  0.0000  0.0000  0.0000  0.0000
  0.0000  0.2256  0.0000  0.0000  0.0000
  0.0000  0.0000  0.2256  0.0000  0.0000
  0.0000  0.0000  0.0000  0.2256  0.0000
  0.0000  0.0000  0.0000  0.0000  0.2256
 
 occupancies and eigenvectors
 
  o =  0.2256  v =  0.0000  0.0000  0.0000  0.0000  0.0000  0.0000  0.0000  1.0000  0.0000  0.0000      0.0000  0.0000  0.0000  0.0000  0.0000  0.0000  0.0000  0.0000  0.0000  0.0000
  o =  0.2256  v =  0.0000  0.0000  0.0000  0.0000  0.0000  1.0000  0.0000  0.0000  0.0000  0.0000      0.0000  0.0000  0.0000  0.0000  0.0000  0.0000  0.0000  0.0000  0.0000  0.0000
  o =  0.2256  v =  0.0000  0.0000  0.0000  0.0000  0.0000  0.0000  1.0000  0.0000  0.0000  0.0000      0.0000  0.0000  0.0000  0.0000  0.0000  0.0000  0.0000  0.0000  0.0000  0.0000
  o =  0.2256  v =  0.0000  0.0000  0.0000  0.0000  0.0000  0.0000  0.0000  0.0000  1.0000  0.0000      0.0000  0.0000  0.0000  0.0000  0.0000  0.0000  0.0000  0.0000  0.0000  0.0000
  o =  0.2256  v =  0.0000  0.0000  0.0000  0.0000  0.0000  0.0000  0.0000  0.0000  0.0000  1.0000      0.0000  0.0000  0.0000  0.0000  0.0000  0.0000  0.0000  0.0000  0.0000  0.0000
  o =  0.8272  v =  0.0000  1.0000  0.0000  0.0000  0.0000  0.0000  0.0000  0.0000  0.0000  0.0000      0.0000  0.0000  0.0000  0.0000  0.0000  0.0000  0.0000  0.0000  0.0000  0.0000
  o =  0.8272  v =  0.0000  0.0000  1.0000  0.0000  0.0000  0.0000  0.0000  0.0000  0.0000  0.0000      0.0000  0.0000  0.0000  0.0000  0.0000  0.0000  0.0000  0.0000  0.0000  0.0000
  o =  0.8272  v =  1.0000  0.0000  0.0000  0.0000  0.0000  0.0000  0.0000  0.0000  0.0000  0.0000      0.0000  0.0000  0.0000  0.0000  0.0000  0.0000  0.0000  0.0000  0.0000  0.0000
  o =  0.8272  v =  0.0000  0.0000  0.0000  1.0000  0.0000  0.0000  0.0000  0.0000  0.0000  0.0000      0.0000  0.0000  0.0000  0.0000  0.0000  0.0000  0.0000  0.0000  0.0000  0.0000
  o =  0.8272  v =  0.0000  0.0000  0.0000  0.0000  1.0000  0.0000  0.0000  0.0000  0.0000  0.0000      0.0000  0.0000  0.0000  0.0000  0.0000  0.0000  0.0000  0.0000  0.0000  0.0000
atom =   8  type =  2  l = 2
 
 onsite density matrix
 
spin component  1
 
  0.8272  0.0000  0.0000  0.0000  0.0000
  0.0000  0.8272  0.0000  0.0000  0.0000
  0.0000  0.0000  0.8272  0.0000  0.0000
  0.0000  0.0000  0.0000  0.8272  0.0000
  0.0000  0.0000  0.0000  0.0000  0.8272
 
spin component  2
 
  0.2256  0.0000  0.0000  0.0000  0.0000
  0.0000  0.2256  0.0000  0.0000  0.0000
  0.0000  0.0000  0.2256  0.0000  0.0000
  0.0000  0.0000  0.0000  0.2256  0.0000
  0.0000  0.0000  0.0000  0.0000  0.2256
 
 occupancies and eigenvectors
 
  o =  0.2256  v =  0.0000  0.0000  0.0000  0.0000  0.0000  0.0000  0.0000  1.0000  0.0000  0.0000      0.0000  0.0000  0.0000  0.0000  0.0000  0.0000  0.0000  0.0000  0.0000  0.0000
  o =  0.2256  v =  0.0000  0.0000  0.0000  0.0000  0.0000  1.0000  0.0000  0.0000  0.0000  0.0000      0.0000  0.0000  0.0000  0.0000  0.0000  0.0000  0.0000  0.0000  0.0000  0.0000
  o =  0.2256  v =  0.0000  0.0000  0.0000  0.0000  0.0000  0.0000  1.0000  0.0000  0.0000  0.0000      0.0000  0.0000  0.0000  0.0000  0.0000  0.0000  0.0000  0.0000  0.0000  0.0000
  o =  0.2256  v =  0.0000  0.0000  0.0000  0.0000  0.0000  0.0000  0.0000  0.0000  1.0000  0.0000      0.0000  0.0000  0.0000  0.0000  0.0000  0.0000  0.0000  0.0000  0.0000  0.0000
  o =  0.2256  v =  0.0000  0.0000  0.0000  0.0000  0.0000  0.0000  0.0000  0.0000  0.0000  1.0000      0.0000  0.0000  0.0000  0.0000  0.0000  0.0000  0.0000  0.0000  0.0000  0.0000
  o =  0.8272  v =  0.0000  1.0000  0.0000  0.0000  0.0000  0.0000  0.0000  0.0000  0.0000  0.0000      0.0000  0.0000  0.0000  0.0000  0.0000  0.0000  0.0000  0.0000  0.0000  0.0000
  o =  0.8272  v =  0.0000  0.0000  1.0000  0.0000  0.0000  0.0000  0.0000  0.0000  0.0000  0.0000      0.0000  0.0000  0.0000  0.0000  0.0000  0.0000  0.0000  0.0000  0.0000  0.0000
  o =  0.8272  v =  1.0000  0.0000  0.0000  0.0000  0.0000  0.0000  0.0000  0.0000  0.0000  0.0000      0.0000  0.0000  0.0000  0.0000  0.0000  0.0000  0.0000  0.0000  0.0000  0.0000
  o =  0.8272  v =  0.0000  0.0000  0.0000  1.0000  0.0000  0.0000  0.0000  0.0000  0.0000  0.0000      0.0000  0.0000  0.0000  0.0000  0.0000  0.0000  0.0000  0.0000  0.0000  0.0000
  o =  0.8272  v =  0.0000  0.0000  0.0000  0.0000  1.0000  0.0000  0.0000  0.0000  0.0000  0.0000      0.0000  0.0000  0.0000  0.0000  0.0000  0.0000  0.0000  0.0000  0.0000  0.0000
atom =   9  type =  2  l = 2
 
 onsite density matrix
 
spin component  1
 
  0.8272  0.0000  0.0000  0.0000  0.0000
  0.0000  0.8272  0.0000  0.0000  0.0000
  0.0000  0.0000  0.8272  0.0000  0.0000
  0.0000  0.0000  0.0000  0.8272  0.0000
  0.0000  0.0000  0.0000  0.0000  0.8272
 
spin component  2
 
  0.2256  0.0000  0.0000  0.0000  0.0000
  0.0000  0.2256  0.0000  0.0000  0.0000
  0.0000  0.0000  0.2256  0.0000  0.0000
  0.0000  0.0000  0.0000  0.2256  0.0000
  0.0000  0.0000  0.0000  0.0000  0.2256
 
 occupancies and eigenvectors
 
  o =  0.2256  v =  0.0000  0.0000  0.0000  0.0000  0.0000  0.0000  0.0000  1.0000  0.0000  0.0000      0.0000  0.0000  0.0000  0.0000  0.0000  0.0000  0.0000  0.0000  0.0000  0.0000
  o =  0.2256  v =  0.0000  0.0000  0.0000  0.0000  0.0000  1.0000  0.0000  0.0000  0.0000  0.0000      0.0000  0.0000  0.0000  0.0000  0.0000  0.0000  0.0000  0.0000  0.0000  0.0000
  o =  0.2256  v =  0.0000  0.0000  0.0000  0.0000  0.0000  0.0000  1.0000  0.0000  0.0000  0.0000      0.0000  0.0000  0.0000  0.0000  0.0000  0.0000  0.0000  0.0000  0.0000  0.0000
  o =  0.2256  v =  0.0000  0.0000  0.0000  0.0000  0.0000  0.0000  0.0000  0.0000  1.0000  0.0000      0.0000  0.0000  0.0000  0.0000  0.0000  0.0000  0.0000  0.0000  0.0000  0.0000
  o =  0.2256  v =  0.0000  0.0000  0.0000  0.0000  0.0000  0.0000  0.0000  0.0000  0.0000  1.0000      0.0000  0.0000  0.0000  0.0000  0.0000  0.0000  0.0000  0.0000  0.0000  0.0000
  o =  0.8272  v =  0.0000  1.0000  0.0000  0.0000  0.0000  0.0000  0.0000  0.0000  0.0000  0.0000      0.0000  0.0000  0.0000  0.0000  0.0000  0.0000  0.0000  0.0000  0.0000  0.0000
  o =  0.8272  v =  0.0000  0.0000  1.0000  0.0000  0.0000  0.0000  0.0000  0.0000  0.0000  0.0000      0.0000  0.0000  0.0000  0.0000  0.0000  0.0000  0.0000  0.0000  0.0000  0.0000
  o =  0.8272  v =  1.0000  0.0000  0.0000  0.0000  0.0000  0.0000  0.0000  0.0000  0.0000  0.0000      0.0000  0.0000  0.0000  0.0000  0.0000  0.0000  0.0000  0.0000  0.0000  0.0000
  o =  0.8272  v =  0.0000  0.0000  0.0000  1.0000  0.0000  0.0000  0.0000  0.0000  0.0000  0.0000      0.0000  0.0000  0.0000  0.0000  0.0000  0.0000  0.0000  0.0000  0.0000  0.0000
  o =  0.8272  v =  0.0000  0.0000  0.0000  0.0000  1.0000  0.0000  0.0000  0.0000  0.0000  0.0000      0.0000  0.0000  0.0000  0.0000  0.0000  0.0000  0.0000  0.0000  0.0000  0.0000
atom =  10  type =  2  l = 2
 
 onsite density matrix
 
spin component  1
 
  0.8272  0.0000  0.0000  0.0000  0.0000
  0.0000  0.8272  0.0000  0.0000  0.0000
  0.0000  0.0000  0.8272  0.0000  0.0000
  0.0000  0.0000  0.0000  0.8272  0.0000
  0.0000  0.0000  0.0000  0.0000  0.8272
 
spin component  2
 
  0.2256  0.0000  0.0000  0.0000  0.0000
  0.0000  0.2256  0.0000  0.0000  0.0000
  0.0000  0.0000  0.2256  0.0000  0.0000
  0.0000  0.0000  0.0000  0.2256  0.0000
  0.0000  0.0000  0.0000  0.0000  0.2256
 
 occupancies and eigenvectors
 
  o =  0.2256  v =  0.0000  0.0000  0.0000  0.0000  0.0000  0.0000  0.0000  1.0000  0.0000  0.0000      0.0000  0.0000  0.0000  0.0000  0.0000  0.0000  0.0000  0.0000  0.0000  0.0000
  o =  0.2256  v =  0.0000  0.0000  0.0000  0.0000  0.0000  1.0000  0.0000  0.0000  0.0000  0.0000      0.0000  0.0000  0.0000  0.0000  0.0000  0.0000  0.0000  0.0000  0.0000  0.0000
  o =  0.2256  v =  0.0000  0.0000  0.0000  0.0000  0.0000  0.0000  1.0000  0.0000  0.0000  0.0000      0.0000  0.0000  0.0000  0.0000  0.0000  0.0000  0.0000  0.0000  0.0000  0.0000
  o =  0.2256  v =  0.0000  0.0000  0.0000  0.0000  0.0000  0.0000  0.0000  0.0000  1.0000  0.0000      0.0000  0.0000  0.0000  0.0000  0.0000  0.0000  0.0000  0.0000  0.0000  0.0000
  o =  0.2256  v =  0.0000  0.0000  0.0000  0.0000  0.0000  0.0000  0.0000  0.0000  0.0000  1.0000      0.0000  0.0000  0.0000  0.0000  0.0000  0.0000  0.0000  0.0000  0.0000  0.0000
  o =  0.8272  v =  0.0000  1.0000  0.0000  0.0000  0.0000  0.0000  0.0000  0.0000  0.0000  0.0000      0.0000  0.0000  0.0000  0.0000  0.0000  0.0000  0.0000  0.0000  0.0000  0.0000
  o =  0.8272  v =  0.0000  0.0000  1.0000  0.0000  0.0000  0.0000  0.0000  0.0000  0.0000  0.0000      0.0000  0.0000  0.0000  0.0000  0.0000  0.0000  0.0000  0.0000  0.0000  0.0000
  o =  0.8272  v =  1.0000  0.0000  0.0000  0.0000  0.0000  0.0000  0.0000  0.0000  0.0000  0.0000      0.0000  0.0000  0.0000  0.0000  0.0000  0.0000  0.0000  0.0000  0.0000  0.0000
  o =  0.8272  v =  0.0000  0.0000  0.0000  1.0000  0.0000  0.0000  0.0000  0.0000  0.0000  0.0000      0.0000  0.0000  0.0000  0.0000  0.0000  0.0000  0.0000  0.0000  0.0000  0.0000
  o =  0.8272  v =  0.0000  0.0000  0.0000  0.0000  1.0000  0.0000  0.0000  0.0000  0.0000  0.0000      0.0000  0.0000  0.0000  0.0000  0.0000  0.0000  0.0000  0.0000  0.0000  0.0000
atom =  11  type =  2  l = 2
 
 onsite density matrix
 
spin component  1
 
  0.8272  0.0000  0.0000  0.0000  0.0000
  0.0000  0.8272  0.0000  0.0000  0.0000
  0.0000  0.0000  0.8272  0.0000  0.0000
  0.0000  0.0000  0.0000  0.8272  0.0000
  0.0000  0.0000  0.0000  0.0000  0.8272
 
spin component  2
 
  0.2256  0.0000  0.0000  0.0000  0.0000
  0.0000  0.2256  0.0000  0.0000  0.0000
  0.0000  0.0000  0.2256  0.0000  0.0000
  0.0000  0.0000  0.0000  0.2256  0.0000
  0.0000  0.0000  0.0000  0.0000  0.2256
 
 occupancies and eigenvectors
 
  o =  0.2256  v =  0.0000  0.0000  0.0000  0.0000  0.0000  0.0000  0.0000  1.0000  0.0000  0.0000      0.0000  0.0000  0.0000  0.0000  0.0000  0.0000  0.0000  0.0000  0.0000  0.0000
  o =  0.2256  v =  0.0000  0.0000  0.0000  0.0000  0.0000  1.0000  0.0000  0.0000  0.0000  0.0000      0.0000  0.0000  0.0000  0.0000  0.0000  0.0000  0.0000  0.0000  0.0000  0.0000
  o =  0.2256  v =  0.0000  0.0000  0.0000  0.0000  0.0000  0.0000  1.0000  0.0000  0.0000  0.0000      0.0000  0.0000  0.0000  0.0000  0.0000  0.0000  0.0000  0.0000  0.0000  0.0000
  o =  0.2256  v =  0.0000  0.0000  0.0000  0.0000  0.0000  0.0000  0.0000  0.0000  1.0000  0.0000      0.0000  0.0000  0.0000  0.0000  0.0000  0.0000  0.0000  0.0000  0.0000  0.0000
  o =  0.2256  v =  0.0000  0.0000  0.0000  0.0000  0.0000  0.0000  0.0000  0.0000  0.0000  1.0000      0.0000  0.0000  0.0000  0.0000  0.0000  0.0000  0.0000  0.0000  0.0000  0.0000
  o =  0.8272  v =  0.0000  1.0000  0.0000  0.0000  0.0000  0.0000  0.0000  0.0000  0.0000  0.0000      0.0000  0.0000  0.0000  0.0000  0.0000  0.0000  0.0000  0.0000  0.0000  0.0000
  o =  0.8272  v =  0.0000  0.0000  1.0000  0.0000  0.0000  0.0000  0.0000  0.0000  0.0000  0.0000      0.0000  0.0000  0.0000  0.0000  0.0000  0.0000  0.0000  0.0000  0.0000  0.0000
  o =  0.8272  v =  1.0000  0.0000  0.0000  0.0000  0.0000  0.0000  0.0000  0.0000  0.0000  0.0000      0.0000  0.0000  0.0000  0.0000  0.0000  0.0000  0.0000  0.0000  0.0000  0.0000
  o =  0.8272  v =  0.0000  0.0000  0.0000  1.0000  0.0000  0.0000  0.0000  0.0000  0.0000  0.0000      0.0000  0.0000  0.0000  0.0000  0.0000  0.0000  0.0000  0.0000  0.0000  0.0000
  o =  0.8272  v =  0.0000  0.0000  0.0000  0.0000  1.0000  0.0000  0.0000  0.0000  0.0000  0.0000      0.0000  0.0000  0.0000  0.0000  0.0000  0.0000  0.0000  0.0000  0.0000  0.0000
atom =  12  type =  3  l = 2
 
 onsite density matrix
 
spin component  1
 
  1.1008  0.0000  0.0000  0.0000  0.0000
  0.0000  1.1008  0.0000  0.0000  0.0000
  0.0000  0.0000  1.1008  0.0000  0.0000
  0.0000  0.0000  0.0000  1.1008  0.0000
  0.0000  0.0000  0.0000  0.0000  1.1008
 
spin component  2
 
  0.5927  0.0000  0.0000  0.0000  0.0000
  0.0000  0.5927  0.0000  0.0000  0.0000
  0.0000  0.0000  0.5927  0.0000  0.0000
  0.0000  0.0000  0.0000  0.5927  0.0000
  0.0000  0.0000  0.0000  0.0000  0.5927
 
 occupancies and eigenvectors
 
  o =  0.5927  v =  0.0000  0.0000  0.0000  0.0000  0.0000  1.0000  0.0000  0.0000  0.0000  0.0000      0.0000  0.0000  0.0000  0.0000  0.0000  0.0000  0.0000  0.0000  0.0000  0.0000
  o =  0.5927  v =  0.0000  0.0000  0.0000  0.0000  0.0000  0.0000  1.0000  0.0000  0.0000  0.0000      0.0000  0.0000  0.0000  0.0000  0.0000  0.0000  0.0000  0.0000  0.0000  0.0000
  o =  0.5927  v =  0.0000  0.0000  0.0000  0.0000  0.0000  0.0000  0.0000  1.0000  0.0000  0.0000      0.0000  0.0000  0.0000  0.0000  0.0000  0.0000  0.0000  0.0000  0.0000  0.0000
  o =  0.5927  v =  0.0000  0.0000  0.0000  0.0000  0.0000  0.0000  0.0000  0.0000  1.0000  0.0000      0.0000  0.0000  0.0000  0.0000  0.0000  0.0000  0.0000  0.0000  0.0000  0.0000
  o =  0.5927  v =  0.0000  0.0000  0.0000  0.0000  0.0000  0.0000  0.0000  0.0000  0.0000  1.0000      0.0000  0.0000  0.0000  0.0000  0.0000  0.0000  0.0000  0.0000  0.0000  0.0000
  o =  1.1008  v =  1.0000  0.0000  0.0000  0.0000  0.0000  0.0000  0.0000  0.0000  0.0000  0.0000      0.0000  0.0000  0.0000  0.0000  0.0000  0.0000  0.0000  0.0000  0.0000  0.0000
  o =  1.1008  v =  0.0000  1.0000  0.0000  0.0000  0.0000  0.0000  0.0000  0.0000  0.0000  0.0000      0.0000  0.0000  0.0000  0.0000  0.0000  0.0000  0.0000  0.0000  0.0000  0.0000
  o =  1.1008  v =  0.0000  0.0000  1.0000  0.0000  0.0000  0.0000  0.0000  0.0000  0.0000  0.0000      0.0000  0.0000  0.0000  0.0000  0.0000  0.0000  0.0000  0.0000  0.0000  0.0000
  o =  1.1008  v =  0.0000  0.0000  0.0000  1.0000  0.0000  0.0000  0.0000  0.0000  0.0000  0.0000      0.0000  0.0000  0.0000  0.0000  0.0000  0.0000  0.0000  0.0000  0.0000  0.0000
  o =  1.1008  v =  0.0000  0.0000  0.0000  0.0000  1.0000  0.0000  0.0000  0.0000  0.0000  0.0000      0.0000  0.0000  0.0000  0.0000  0.0000  0.0000  0.0000  0.0000  0.0000  0.0000
atom =  13  type =  4  l = 0
 
 onsite density matrix
 
spin component  1
 
  0.8190
 
spin component  2
 
  0.8190
 
 occupancies and eigenvectors
 
  o =  0.8190  v =  1.0000  0.0000      0.0000  0.0000
  o =  0.8190  v =  0.0000  1.0000      0.0000  0.0000
atom =  14  type =  4  l = 0
 
 onsite density matrix
 
spin component  1
 
  0.8190
 
spin component  2
 
  0.8190
 
 occupancies and eigenvectors
 
  o =  0.8190  v =  1.0000  0.0000      0.0000  0.0000
  o =  0.8190  v =  0.0000  1.0000      0.0000  0.0000
atom =  15  type =  4  l = 0
 
 onsite density matrix
 
spin component  1
 
  0.8190
 
spin component  2
 
  0.8190
 
 occupancies and eigenvectors
 
  o =  0.8190  v =  1.0000  0.0000      0.0000  0.0000
  o =  0.8190  v =  0.0000  1.0000      0.0000  0.0000
atom =  16  type =  4  l = 0
 
 onsite density matrix
 
spin component  1
 
  0.8190
 
spin component  2
 
  0.8190
 
 occupancies and eigenvectors
 
  o =  0.8190  v =  1.0000  0.0000      0.0000  0.0000
  o =  0.8190  v =  0.0000  1.0000      0.0000  0.0000
atom =  17  type =  4  l = 0
 
 onsite density matrix
 
spin component  1
 
  0.8190
 
spin component  2
 
  0.8190
 
 occupancies and eigenvectors
 
  o =  0.8190  v =  1.0000  0.0000      0.0000  0.0000
  o =  0.8190  v =  0.0000  1.0000      0.0000  0.0000
atom =  18  type =  4  l = 0
 
 onsite density matrix
 
spin component  1
 
  0.8190
 
spin component  2
 
  0.8190
 
 occupancies and eigenvectors
 
  o =  0.8190  v =  1.0000  0.0000      0.0000  0.0000
  o =  0.8190  v =  0.0000  1.0000      0.0000  0.0000
atom =  19  type =  4  l = 0
 
 onsite density matrix
 
spin component  1
 
  0.8190
 
spin component  2
 
  0.8190
 
 occupancies and eigenvectors
 
  o =  0.8190  v =  1.0000  0.0000      0.0000  0.0000
  o =  0.8190  v =  0.0000  1.0000      0.0000  0.0000
atom =  20  type =  4  l = 0
 
 onsite density matrix
 
spin component  1
 
  0.8190
 
spin component  2
 
  0.8190
 
 occupancies and eigenvectors
 
  o =  0.8190  v =  1.0000  0.0000      0.0000  0.0000
  o =  0.8190  v =  0.0000  1.0000      0.0000  0.0000
atom =  21  type =  4  l = 0
 
 onsite density matrix
 
spin component  1
 
  0.8190
 
spin component  2
 
  0.8190
 
 occupancies and eigenvectors
 
  o =  0.8190  v =  1.0000  0.0000      0.0000  0.0000
  o =  0.8190  v =  0.0000  1.0000      0.0000  0.0000
atom =  22  type =  4  l = 0
 
 onsite density matrix
 
spin component  1
 
  0.8190
 
spin component  2
 
  0.8190
 
 occupancies and eigenvectors
 
  o =  0.8190  v =  1.0000  0.0000      0.0000  0.0000
  o =  0.8190  v =  0.0000  1.0000      0.0000  0.0000
atom =  23  type =  4  l = 0
 
 onsite density matrix
 
spin component  1
 
  0.8190
 
spin component  2
 
  0.8190
 
 occupancies and eigenvectors
 
  o =  0.8190  v =  1.0000  0.0000      0.0000  0.0000
  o =  0.8190  v =  0.0000  1.0000      0.0000  0.0000
atom =  24  type =  4  l = 0
 
 onsite density matrix
 
spin component  1
 
  0.8190
 
spin component  2
 
  0.8190
 
 occupancies and eigenvectors
 
  o =  0.8190  v =  1.0000  0.0000      0.0000  0.0000
  o =  0.8190  v =  0.0000  1.0000      0.0000  0.0000
atom =  25  type =  4  l = 0
 
 onsite density matrix
 
spin component  1
 
  0.8190
 
spin component  2
 
  0.8190
 
 occupancies and eigenvectors
 
  o =  0.8190  v =  1.0000  0.0000      0.0000  0.0000
  o =  0.8190  v =  0.0000  1.0000      0.0000  0.0000
atom =  26  type =  4  l = 0
 
 onsite density matrix
 
spin component  1
 
  0.8190
 
spin component  2
 
  0.8190
 
 occupancies and eigenvectors
 
  o =  0.8190  v =  1.0000  0.0000      0.0000  0.0000
  o =  0.8190  v =  0.0000  1.0000      0.0000  0.0000
atom =  27  type =  4  l = 0
 
 onsite density matrix
 
spin component  1
 
  0.8190
 
spin component  2
 
  0.8190
 
 occupancies and eigenvectors
 
  o =  0.8190  v =  1.0000  0.0000      0.0000  0.0000
  o =  0.8190  v =  0.0000  1.0000      0.0000  0.0000
atom =  28  type =  4  l = 0
 
 onsite density matrix
 
spin component  1
 
  0.8190
 
spin component  2
 
  0.8190
 
 occupancies and eigenvectors
 
  o =  0.8190  v =  1.0000  0.0000      0.0000  0.0000
  o =  0.8190  v =  0.0000  1.0000      0.0000  0.0000
atom =  29  type =  4  l = 0
 
 onsite density matrix
 
spin component  1
 
  0.8190
 
spin component  2
 
  0.8190
 
 occupancies and eigenvectors
 
  o =  0.8190  v =  1.0000  0.0000      0.0000  0.0000
  o =  0.8190  v =  0.0000  1.0000      0.0000  0.0000
atom =  30  type =  4  l = 0
 
 onsite density matrix
 
spin component  1
 
  0.8190
 
spin component  2
 
  0.8190
 
 occupancies and eigenvectors
 
  o =  0.8190  v =  1.0000  0.0000      0.0000  0.0000
  o =  0.8190  v =  0.0000  1.0000      0.0000  0.0000
     EDDAV:  cpu time    4.2650: real time    4.2802
 BZINTS: Fermi energy: 30.846877;219.000000 electrons
         Band energy:3251.088914;  BLOECHL correction: -0.184814
       DOS:  cpu time    0.0214: real time    0.0215
    --------------------------------------------
      LOOP:  cpu time    4.3861: real time    4.4031

 eigenvalue-minimisations  :  7408
 total energy-change (2. order) : 0.3548335E+04  (-0.7545020E+04)
 number of electron     219.0000000 magnetization      23.0000000
 augmentation part      219.0000000 magnetization      23.0000000

 Free energy of the ion-electron system (eV)
  ---------------------------------------------------
  alpha Z        PSCENC =       967.40131122
  Ewald energy   TEWEN  =    -14613.51148958
  -Hartree energ DENC   =     -2902.65247253
  -exchange      EXHF   =         0.00000000
  -V(xc)+E(xc)   XCENC  =       667.13877556
  PAW double counting   =     13087.43818639   -13048.29315604
  entropy T*S    EENTRO =         0.00000000
  eigenvalues    EBANDS =      3251.08891356
  atomic energy  EATOM  =     16139.72541369
  Solvation  Ediel_sol  =         0.00000000
  ---------------------------------------------------
  free energy    TOTEN  =      3548.33548227 eV

  energy without entropy =     3548.33548227  energy(sigma->0) =     3548.33548227


--------------------------------------------------------------------------------------------------------




--------------------------------------- Iteration      1(   2)  ---------------------------------------


     EDDAV:  cpu time    4.4024: real time    4.4164
 BZINTS: Fermi energy: 16.252109;219.000000 electrons
         Band energy: 937.788140;  BLOECHL correction: -0.038737
       DOS:  cpu time    0.0220: real time    0.0221
    --------------------------------------------
      LOOP:  cpu time    4.4244: real time    4.4385

 eigenvalue-minimisations  :  7736
 total energy-change (2. order) :-0.2313301E+04  (-0.2073079E+04)
 number of electron     219.0000000 magnetization      23.0000000
 augmentation part      219.0000000 magnetization      23.0000000

 Free energy of the ion-electron system (eV)
  ---------------------------------------------------
  alpha Z        PSCENC =       967.40131122
  Ewald energy   TEWEN  =    -14613.51148958
  -Hartree energ DENC   =     -2902.65247253
  -exchange      EXHF   =         0.00000000
  -V(xc)+E(xc)   XCENC  =       667.13877556
  PAW double counting   =     13087.43818639   -13048.29315604
  entropy T*S    EENTRO =         0.00000000
  eigenvalues    EBANDS =       937.78813992
  atomic energy  EATOM  =     16139.72541369
  Solvation  Ediel_sol  =         0.00000000
  ---------------------------------------------------
  free energy    TOTEN  =      1235.03470863 eV

  energy without entropy =     1235.03470863  energy(sigma->0) =     1235.03470863


--------------------------------------------------------------------------------------------------------




--------------------------------------- Iteration      1(   3)  ---------------------------------------


     EDDAV:  cpu time    4.6433: real time    4.6584
 BZINTS: Fermi energy: 11.945904;219.000000 electrons
         Band energy: -44.874198;  BLOECHL correction: -0.025292
       DOS:  cpu time    0.0197: real time    0.0197
    --------------------------------------------
      LOOP:  cpu time    4.6629: real time    4.6781

 eigenvalue-minimisations  :  8304
 total energy-change (2. order) :-0.9826623E+03  (-0.8868396E+03)
 number of electron     219.0000000 magnetization      23.0000000
 augmentation part      219.0000000 magnetization      23.0000000

 Free energy of the ion-electron system (eV)
  ---------------------------------------------------
  alpha Z        PSCENC =       967.40131122
  Ewald energy   TEWEN  =    -14613.51148958
  -Hartree energ DENC   =     -2902.65247253
  -exchange      EXHF   =         0.00000000
  -V(xc)+E(xc)   XCENC  =       667.13877556
  PAW double counting   =     13087.43818639   -13048.29315604
  entropy T*S    EENTRO =         0.00000000
  eigenvalues    EBANDS =       -44.87419770
  atomic energy  EATOM  =     16139.72541369
  Solvation  Ediel_sol  =         0.00000000
  ---------------------------------------------------
  free energy    TOTEN  =       252.37237101 eV

  energy without entropy =      252.37237101  energy(sigma->0) =      252.37237101


--------------------------------------------------------------------------------------------------------




--------------------------------------- Iteration      1(   4)  ---------------------------------------


     EDDAV:  cpu time    5.9267: real time    5.9481
 BZINTS: Fermi energy: 11.155443;219.000000 electrons
         Band energy:-466.126614;  BLOECHL correction: -0.008762
       DOS:  cpu time    0.0248: real time    0.0249
    --------------------------------------------
      LOOP:  cpu time    5.9515: real time    5.9730

 eigenvalue-minimisations  : 11080
 total energy-change (2. order) :-0.4212524E+03  (-0.3943322E+03)
 number of electron     219.0000000 magnetization      23.0000000
 augmentation part      219.0000000 magnetization      23.0000000

 Free energy of the ion-electron system (eV)
  ---------------------------------------------------
  alpha Z        PSCENC =       967.40131122
  Ewald energy   TEWEN  =    -14613.51148958
  -Hartree energ DENC   =     -2902.65247253
  -exchange      EXHF   =         0.00000000
  -V(xc)+E(xc)   XCENC  =       667.13877556
  PAW double counting   =     13087.43818639   -13048.29315604
  entropy T*S    EENTRO =         0.00000000
  eigenvalues    EBANDS =      -466.12661355
  atomic energy  EATOM  =     16139.72541369
  Solvation  Ediel_sol  =         0.00000000
  ---------------------------------------------------
  free energy    TOTEN  =      -168.88004484 eV

  energy without entropy =     -168.88004484  energy(sigma->0) =     -168.88004484


--------------------------------------------------------------------------------------------------------




--------------------------------------- Iteration      1(   5)  ---------------------------------------


     EDDAV:  cpu time    6.4957: real time    6.5165
 BZINTS: Fermi energy: 10.840866;219.000000 electrons
         Band energy:-558.715308;  BLOECHL correction: -0.055458
       DOS:  cpu time    0.0230: real time    0.0230
    CHARGE:  cpu time    0.1921: real time    0.1928
    MIXING:  cpu time    0.0034: real time    0.0035
    --------------------------------------------
      LOOP:  cpu time    6.7142: real time    6.7358

 eigenvalue-minimisations  : 12360
 total energy-change (2. order) :-0.9258869E+02  (-0.8956363E+02)
 number of electron     218.9999964 magnetization      21.7470293
 augmentation part       23.4430727 magnetization      14.7622557

 Broyden mixing:
  rms(total) = 0.68458E+01    rms(broyden)= 0.68453E+01
  rms(prec ) = 0.77084E+01
  weight for this iteration     100.00

 Free energy of the ion-electron system (eV)
  ---------------------------------------------------
  alpha Z        PSCENC =       967.40131122
  Ewald energy   TEWEN  =    -14613.51148958
  -Hartree energ DENC   =     -2902.65247253
  -exchange      EXHF   =         0.00000000
  -V(xc)+E(xc)   XCENC  =       667.13877556
  PAW double counting   =     13087.43818639   -13048.29315604
  entropy T*S    EENTRO =         0.00000000
  eigenvalues    EBANDS =      -558.71530791
  atomic energy  EATOM  =     16139.72541369
  Solvation  Ediel_sol  =         0.00000000
  ---------------------------------------------------
  free energy    TOTEN  =      -261.46873920 eV

  energy without entropy =     -261.46873920  energy(sigma->0) =     -261.46873920


--------------------------------------------------------------------------------------------------------




--------------------------------------- Iteration      1(   6)  ---------------------------------------


    POTLOK:  cpu time    0.0803: real time    0.0815
    SETDIJ:  cpu time    0.0138: real time    0.0138
atom =   1  type =  1  l = 0
 
 onsite density matrix
 
spin component  1
 
  1.0562
 
spin component  2
 
  1.0559
 
 occupancies and eigenvectors
 
  o =  1.0559  v =  0.0000  1.0000      0.0000  0.0000
  o =  1.0562  v =  1.0000  0.0000      0.0000  0.0000
atom =   2  type =  1  l = 0
 
 onsite density matrix
 
spin component  1
 
  1.0561
 
spin component  2
 
  1.0558
 
 occupancies and eigenvectors
 
  o =  1.0558  v =  0.0000  1.0000      0.0000  0.0000
  o =  1.0561  v =  1.0000  0.0000      0.0000  0.0000
atom =   3  type =  1  l = 0
 
 onsite density matrix
 
spin component  1
 
  1.0568
 
spin component  2
 
  1.0563
 
 occupancies and eigenvectors
 
  o =  1.0563  v =  0.0000  1.0000      0.0000  0.0000
  o =  1.0568  v =  1.0000  0.0000      0.0000  0.0000
atom =   4  type =  1  l = 0
 
 onsite density matrix
 
spin component  1
 
  1.0562
 
spin component  2
 
  1.0559
 
 occupancies and eigenvectors
 
  o =  1.0559  v =  0.0000  1.0000      0.0000  0.0000
  o =  1.0562  v =  1.0000  0.0000      0.0000  0.0000
atom =   5  type =  1  l = 0
 
 onsite density matrix
 
spin component  1
 
  1.0561
 
spin component  2
 
  1.0558
 
 occupancies and eigenvectors
 
  o =  1.0558  v =  0.0000  1.0000      0.0000  0.0000
  o =  1.0561  v =  1.0000  0.0000      0.0000  0.0000
atom =   6  type =  1  l = 0
 
 onsite density matrix
 
spin component  1
 
  1.0568
 
spin component  2
 
  1.0563
 
 occupancies and eigenvectors
 
  o =  1.0563  v =  0.0000  1.0000      0.0000  0.0000
  o =  1.0568  v =  1.0000  0.0000      0.0000  0.0000
atom =   7  type =  2  l = 2
 
 onsite density matrix
 
spin component  1
 
  0.9575  0.0000  0.0000  0.0000  0.0000
  0.0000  0.9457  0.0000 -0.0000  0.0000
  0.0000  0.0000  0.4432  0.0000 -0.0000
  0.0000 -0.0000  0.0000  0.9457  0.0000
  0.0000  0.0000 -0.0000  0.0000  0.4661
 
spin component  2
 
  0.0242  0.0000 -0.0000  0.0000  0.0000
  0.0000  0.0332  0.0000  0.0000  0.0000
 -0.0000  0.0000  0.3819  0.0000  0.0000
  0.0000  0.0000  0.0000  0.0332  0.0000
  0.0000  0.0000  0.0000  0.0000  0.3716
 
 occupancies and eigenvectors
 
  o =  0.0242  v =  0.0000  0.0000  0.0000  0.0000  0.0000  1.0000  0.0000  0.0000  0.0000  0.0000      0.0000  0.0000  0.0000  0.0000  0.0000  0.0000  0.0000  0.0000  0.0000  0.0000
  o =  0.0332  v =  0.0000  0.0000  0.0000  0.0000  0.0000  0.0000 -0.9993  0.0000 -0.0366  0.0000      0.0000  0.0000  0.0000  0.0000  0.0000  0.0000  0.0000  0.0000  0.0000  0.0000
  o =  0.0332  v =  0.0000  0.0000  0.0000  0.0000  0.0000  0.0000  0.0366 -0.0000 -0.9993  0.0000      0.0000  0.0000  0.0000  0.0000  0.0000  0.0000  0.0000  0.0000  0.0000  0.0000
  o =  0.3716  v =  0.0000  0.0000  0.0000  0.0000  0.0000  0.0000  0.0000  0.0000 -0.0000 -1.0000      0.0000  0.0000  0.0000  0.0000  0.0000  0.0000  0.0000  0.0000  0.0000  0.0000
  o =  0.3819  v =  0.0000  0.0000  0.0000  0.0000  0.0000  0.0000 -0.0000 -1.0000 -0.0000 -0.0000      0.0000  0.0000  0.0000  0.0000  0.0000  0.0000  0.0000  0.0000  0.0000  0.0000
  o =  0.4432  v =  0.0000  0.0000 -1.0000  0.0000  0.0000  0.0000  0.0000  0.0000  0.0000  0.0000      0.0000  0.0000  0.0000  0.0000  0.0000  0.0000  0.0000  0.0000  0.0000  0.0000
  o =  0.4661  v =  0.0000  0.0000  0.0000  0.0000 -1.0000  0.0000  0.0000  0.0000  0.0000  0.0000      0.0000  0.0000  0.0000  0.0000  0.0000  0.0000  0.0000  0.0000  0.0000  0.0000
  o =  0.9457  v =  0.0000  0.0000  0.0000  1.0000  0.0000  0.0000  0.0000  0.0000  0.0000  0.0000      0.0000  0.0000  0.0000  0.0000  0.0000  0.0000  0.0000  0.0000  0.0000  0.0000
  o =  0.9457  v =  0.0000  1.0000  0.0000  0.0000  0.0000  0.0000  0.0000  0.0000  0.0000  0.0000      0.0000  0.0000  0.0000  0.0000  0.0000  0.0000  0.0000  0.0000  0.0000  0.0000
  o =  0.9575  v =  1.0000  0.0000  0.0000  0.0000  0.0000  0.0000  0.0000  0.0000  0.0000  0.0000      0.0000  0.0000  0.0000  0.0000  0.0000  0.0000  0.0000  0.0000  0.0000  0.0000
atom =   8  type =  2  l = 2
 
 onsite density matrix
 
spin component  1
 
  0.9563  0.0000  0.0000  0.0000  0.0000
  0.0000  0.9449  0.0000 -0.0000  0.0000
  0.0000  0.0000  0.5001  0.0000  0.0000
  0.0000 -0.0000  0.0000  0.9449  0.0000
  0.0000  0.0000  0.0000  0.0000  0.4600
 
spin component  2
 
  0.0246  0.0000 -0.0000  0.0000  0.0000
  0.0000  0.0324  0.0000  0.0000  0.0000
 -0.0000  0.0000  0.3491  0.0000  0.0000
[...]
  0.000   0.000   0.000  -0.001   0.000   0.000  -0.001   0.000   0.000   0.000  -0.000   0.000   0.000  -0.000   0.000   0.000
  0.000   0.000   0.000   0.000   0.001   0.000   0.000   0.000   0.000  -0.000   0.000  -0.000   0.000   0.000   0.000   0.000
  0.000   0.000   0.000   0.000   0.000   0.000   0.000   0.000   0.000   0.000   0.000   0.000  -0.000   0.000   0.000   0.000
  0.000   0.000   0.000   0.000  -0.001  -0.000   0.000  -0.001   0.000   0.000   0.000  -0.000   0.000   0.000  -0.000   0.000
  0.000   0.000  -0.000   0.000   0.000  -0.001   0.000  -0.000   0.000  -0.000   0.000   0.000   0.000   0.000   0.000   0.000
  0.000   0.000   0.000  -0.000   0.000   0.000   0.000   0.000  -0.000   0.000   0.000   0.000   0.000   0.000   0.000  -0.000
  0.000   0.000  -0.000   0.000  -0.000  -0.001   0.000  -0.000   0.000   0.000   0.000   0.000   0.000   0.000  -0.000   0.000
 -0.000  -0.000   0.000   0.000   0.000   0.000   0.001   0.000  -0.000   0.000   0.000   0.000   0.000  -0.000   0.000  -0.000
  0.000   0.000  -0.000   0.000  -0.000  -0.000   0.000  -0.001   0.000   0.000   0.000   0.000   0.000   0.000  -0.000   0.000
  0.000   0.000   0.000   0.000   0.000   0.000   0.000   0.000   0.000   0.000   0.000   0.000   0.000   0.000   0.000   0.000
  0.000   0.000  -0.000   0.000   0.000   0.000   0.000   0.001   0.000  -0.000   0.000   0.000   0.000   0.000   0.000   0.000


------------------------ aborting loop because EDIFF is reached ----------------------------------------


 


 total charge     
 
# of ion       s       p       d       f       tot
--------------------------------------------------
    1        1.998   5.697   0.480   0.186   8.361
    2        1.998   5.695   0.477   0.183   8.353
    3        1.998   5.696   0.473   0.185   8.352
    4        1.998   5.697   0.480   0.186   8.361
    5        1.998   5.696   0.473   0.185   8.352
    6        1.998   5.695   0.477   0.183   8.353
    7        0.316   0.476   4.893   0.000   5.685
    8        0.316   0.476   4.906   0.000   5.697
    9        0.337   0.524   4.876   0.000   5.737
   10        0.316   0.477   4.892   0.000   5.685
   11        0.316   0.476   4.904   0.000   5.696
   12        0.387   0.551   8.322   0.000   9.261
   13        1.565   3.455   0.000   0.000   5.020
   14        1.564   3.451   0.000   0.000   5.015
   15        1.566   3.454   0.000   0.000   5.020
   16        1.558   3.453   0.000   0.000   5.012
   17        1.563   3.461   0.000   0.000   5.025
   18        1.558   3.453   0.000   0.000   5.012
   19        1.565   3.466   0.000   0.000   5.031
   20        1.565   3.465   0.000   0.000   5.030
   21        1.560   3.462   0.000   0.000   5.022
   22        1.565   3.464   0.000   0.000   5.030
   23        1.565   3.466   0.000   0.000   5.031
   24        1.560   3.462   0.000   0.000   5.022
   25        1.563   3.453   0.000   0.000   5.015
   26        1.563   3.450   0.000   0.000   5.013
   27        1.559   3.459   0.000   0.000   5.018
   28        1.563   3.450   0.000   0.000   5.013
   29        1.563   3.451   0.000   0.000   5.014
   30        1.559   3.459   0.000   0.000   5.018
--------------------------------------------------
tot         42.103  99.387  35.655   1.108 178.253

 


 magnetization (x)
 
# of ion       s       p       d       f       tot
--------------------------------------------------
    1        0.001   0.001   0.013   0.008   0.022
    2        0.001   0.001   0.010   0.005   0.017
    3        0.001   0.000   0.010   0.006   0.017
    4        0.001   0.001   0.013   0.007   0.022
    5        0.001   0.000   0.010   0.006   0.017
    6        0.001   0.001   0.010   0.005   0.017
    7        0.025   0.028   3.781   0.000   3.834
    8        0.025   0.026   3.814   0.000   3.865
    9        0.028   0.038   3.554   0.000   3.620
   10        0.025   0.029   3.779   0.000   3.832
   11        0.025   0.026   3.808   0.000   3.859
   12        0.009  -0.003   1.710   0.000   1.716
   13        0.008  -0.035   0.000   0.000  -0.027
   14        0.006  -0.051   0.000   0.000  -0.045
   15        0.008  -0.035   0.000   0.000  -0.027
   16        0.006   0.009   0.000   0.000   0.015
   17        0.006  -0.025   0.000   0.000  -0.019
   18        0.006   0.010   0.000   0.000   0.016
   19        0.007  -0.034   0.000   0.000  -0.027
   20        0.007  -0.037   0.000   0.000  -0.029
   21        0.006  -0.008   0.000   0.000  -0.002
   22        0.007  -0.036   0.000   0.000  -0.029
   23        0.007  -0.036   0.000   0.000  -0.029
   24        0.006  -0.008   0.000   0.000  -0.002
   25        0.004  -0.038   0.000   0.000  -0.034
   26        0.004  -0.041   0.000   0.000  -0.037
   27        0.004  -0.002   0.000   0.000   0.002
   28        0.004  -0.041   0.000   0.000  -0.036
   29        0.004  -0.040   0.000   0.000  -0.036
   30        0.004  -0.002   0.000   0.000   0.002
--------------------------------------------------
tot          0.244  -0.299  20.510   0.038  20.493

 
    CHARGE:  cpu time    0.1882: real time    0.1886
    FORLOC:  cpu time    0.0110: real time    0.0110
    FORNL :  cpu time    1.1809: real time    1.1846
    STRESS:  cpu time    3.5730: real time    3.5843
    FORCOR:  cpu time    0.0902: real time    0.0904
    FORHAR:  cpu time    0.0192: real time    0.0192
    MIXING:  cpu time    0.0192: real time    0.0192
    OFIELD:  cpu time    0.0001: real time    0.0002

  FORCE on cell =-STRESS in cart. coord.  units (eV):
  Direction    XX          YY          ZZ          XY          YZ          ZX
  --------------------------------------------------------------------------------------
  Alpha Z   967.40131   967.40131   967.40131
  Ewald   -4832.48330 -4832.48330 -4948.59767     0.00000    -0.00000     0.00000
  Hartree  1032.50200  1032.50200   954.33995    -0.00000    -0.00000     0.00000
  E(xc)   -1005.72387 -1005.72387 -1005.70558     0.00000     0.00000     0.00000
  Local    -569.67606  -569.67606  -383.37562    -0.00000     0.00000    -0.00000
  n-local   390.63346   390.70662   389.17390    -1.97669    -0.00105     0.00631
  augment   197.77004   197.77004   200.44228    -0.00000    -0.00000     0.00000
  Kinetic  3818.58974  3823.93003  3827.73201   -13.34782     0.00278    -0.02692
  Fock        0.00000     0.00000     0.00000     0.00000     0.00000     0.00000
  -------------------------------------------------------------------------------------
  Total       1.72005     1.72005     1.41058     0.00000     0.00000     0.00000
  in kB       7.65367     7.65367     6.27662     0.00000     0.00000     0.00000
  external pressure =        7.19 kB  Pullay stress =        0.00 kB


 VOLUME and BASIS-vectors are now :
 -----------------------------------------------------------------------------
  energy-cutoff  :      520.00
  volume of cell :      360.07
      direct lattice vectors                 reciprocal lattice vectors
     3.904615831  3.904615831  0.000000000     0.128053571  0.128053571  0.000000000
     3.904615831 -3.904615831  0.000000000     0.128053571 -0.128053571  0.000000000
     0.000000000  0.000000000-11.808529528     0.000000000  0.000000000 -0.084684549

  length of vectors
     5.521960664  5.521960664 11.808529528     0.181095097  0.181095097  0.084684549


 FORCES acting on ions
    electron-ion (+dipol)            ewald-force                    non-local-force                 convergence-correction
 -----------------------------------------------------------------------------------------------
   0.359E-12 -.368E-12 -.994E+00   0.251E-13 0.326E-13 0.104E+01   0.000E+00 0.000E+00 0.129E-01   0.449E-14 -.163E-13 -.540E-01
   -.283E-13 -.400E-14 -.889E+02   -.411E-14 -.355E-13 0.884E+02   0.542E-19 0.542E-19 0.478E+00   0.315E-13 0.367E-13 0.882E-01
   0.178E-12 -.201E-12 0.899E+02   -.183E-13 0.284E-13 -.894E+02   0.000E+00 0.000E+00 -.489E+00   0.202E-13 0.523E-14 -.345E-01
   -.144E-13 0.237E-15 -.994E+00   -.340E-13 -.535E-13 0.104E+01   0.610E-19 -.610E-19 0.129E-01   0.117E-13 0.173E-13 -.540E-01
   0.636E-12 -.621E-12 -.889E+02   0.169E-13 0.355E-13 0.884E+02   0.407E-19 0.542E-19 0.478E+00   -.364E-14 -.401E-13 0.882E-01
   -.674E-13 0.400E-13 0.899E+02   0.966E-14 -.284E-13 -.894E+02   -.136E-19 -.407E-19 -.489E+00   0.220E-13 0.533E-14 -.345E-01
   -.405E-12 0.670E-12 0.247E+02   0.657E-13 -.621E-14 -.241E+02   0.000E+00 0.000E+00 -.694E+00   -.179E-13 0.484E-14 -.388E-01
   0.595E-13 -.716E-13 -.189E+02   -.284E-13 -.283E-13 0.188E+02   0.000E+00 0.000E+00 0.170E-02   0.295E-13 0.217E-13 0.206E-01
   0.193E-12 -.197E-12 0.119E+00   -.284E-13 0.275E-13 -.122E+00   0.508E-20 0.169E-20 -.393E-02   0.764E-14 0.863E-14 0.118E-01
   -.159E-12 0.431E-12 -.249E+02   -.213E-13 0.548E-14 0.242E+02   0.000E+00 0.000E+00 0.692E+00   -.396E-13 -.268E-13 0.244E-01
   0.227E-12 -.224E-12 0.187E+02   -.115E-12 -.141E-13 -.187E+02   -.271E-19 0.271E-19 0.441E-02   -.137E-13 -.163E-13 -.317E-01
   0.769E-12 0.730E-12 0.189E+00   -.853E-13 -.280E-13 -.217E+00   -.678E-20 0.678E-20 0.843E-02   -.613E-13 -.354E-13 0.213E-01
   0.172E-12 -.178E-12 -.352E+02   -.426E-13 -.228E-13 0.347E+02   0.339E-20 0.339E-20 0.504E+00   0.234E-13 0.211E-14 0.602E-01
   0.166E-12 0.160E-12 -.308E+00   0.159E-13 -.363E-13 0.352E+00   0.678E-20 -.678E-20 -.351E-01   -.235E-13 -.134E-13 -.273E-01
   0.209E-12 -.195E-12 0.356E+02   -.426E-13 -.282E-13 -.352E+02   -.339E-20 0.339E-20 -.485E+00   -.191E-13 -.224E-13 -.132E-01
   0.518E-12 -.179E-12 -.845E+02   -.107E-13 0.270E-13 0.822E+02   0.000E+00 0.000E+00 0.222E+01   -.410E-13 -.206E-13 0.819E-01
   0.121E-12 -.118E-12 -.432E+00   -.532E-13 -.136E-13 0.498E+00   0.000E+00 0.000E+00 -.227E-01   0.441E-14 -.123E-13 -.468E-01
   0.306E-13 0.305E-12 0.848E+02   -.355E-14 -.278E-13 -.826E+02   0.000E+00 0.000E+00 -.217E+01   -.181E-13 -.195E-13 -.554E-01
   -.299E-09 -.896E+00 -.165E+02   -.113E-14 0.941E+00 0.162E+02   -.867E-18 -.118E+00 0.344E+00   -.409E-14 0.296E-01 0.163E-01
   0.349E-09 0.962E+00 0.164E+02   0.435E-13 -.998E+00 -.161E+02   0.867E-18 0.395E-01 -.329E+00   -.132E-13 0.212E-02 -.298E-01
   -.154E-09 -.379E+02 0.738E-01   -.799E-14 0.330E+02 -.759E-01   0.000E+00 0.485E+01 -.107E-01   0.132E-13 0.485E-01 0.130E-01
   -.299E-09 0.896E+00 -.165E+02   0.558E-13 -.941E+00 0.162E+02   0.000E+00 0.118E+00 0.344E+00   -.126E-13 -.296E-01 0.163E-01
   0.350E-09 -.962E+00 0.164E+02   -.146E-15 0.998E+00 -.161E+02   -.867E-18 -.395E-01 -.329E+00   -.547E-15 -.212E-02 -.298E-01
   -.154E-09 0.379E+02 0.738E-01   -.493E-13 -.330E+02 -.759E-01   0.000E+00 -.485E+01 -.107E-01   -.383E-13 -.485E-01 0.130E-01
   -.896E+00 0.361E-12 -.165E+02   0.941E+00 -.180E-13 0.162E+02   -.118E+00 0.000E+00 0.344E+00   0.296E-01 -.171E-13 0.163E-01
   0.962E+00 -.785E-12 0.164E+02   -.998E+00 0.128E-13 -.161E+02   0.395E-01 0.104E-17 -.329E+00   0.212E-02 -.270E-13 -.298E-01
   -.379E+02 0.248E-11 0.738E-01   0.330E+02 -.116E-13 -.759E-01   0.485E+01 0.000E+00 -.107E-01   0.485E-01 -.729E-16 0.130E-01
   0.896E+00 -.109E-11 -.165E+02   -.941E+00 0.195E-13 0.162E+02   0.118E+00 0.867E-18 0.344E+00   -.296E-01 -.173E-13 0.163E-01
   -.962E+00 0.934E-12 0.164E+02   0.998E+00 0.142E-13 -.161E+02   -.395E-01 -.276E-17 -.329E+00   -.212E-02 -.123E-13 -.298E-01
   0.379E+02 -.657E-12 0.738E-01   -.330E+02 -.158E-13 -.759E-01   -.485E+01 0.000E+00 -.107E-01   -.485E-01 -.263E-13 0.130E-01
 -----------------------------------------------------------------------------------------------
   0.319E-11 0.437E-11 -.402E-01   -.142E-13 -.486E-13 -.533E-13   0.000E+00 -.854E-18 0.377E-01   -.808E-13 -.314E-12 0.472E-02
 
 
 POSITION                                       TOTAL-FORCE (eV/Angst)
 -----------------------------------------------------------------------------------
      3.90462      0.00000     -3.93767         0.000000      0.000000      0.000015
      0.00000      0.00000     -7.92719         0.000000      0.000000      0.012175
      3.90462      0.00000    -11.75231         0.000000     -0.000000     -0.011244
      0.00000      0.00000     -3.93767         0.000000      0.000000      0.000015
      3.90462      0.00000     -7.92719         0.000000      0.000000      0.012175
      0.00000      0.00000    -11.75231         0.000000      0.000000     -0.011244
      1.95231      1.95231     -1.95602         0.000000     -0.000000     -0.055783
      1.95231     -1.95231     -5.90251         0.000000      0.000000     -0.012875
      1.95231     -1.95231     -9.84043         0.000000     -0.000000      0.004918
      1.95231      1.95231     -5.91632         0.000000     -0.000000      0.053069
      1.95231     -1.95231     -1.96985         0.000000      0.000000      0.008558
      1.95231      1.95231     -9.84045         0.000000      0.000000      0.001907
      1.95231     -1.95231     -7.85976         0.000000      0.000000      0.056536
      1.95231      1.95231     -3.93609         0.000000      0.000000     -0.018141
      1.95231     -1.95231     -0.01231         0.000000     -0.000000     -0.054622
      1.95231      1.95231     -7.87456         0.000000      0.000000     -0.038407
      1.95231     -1.95231     -3.93640         0.000000      0.000000     -0.003269
      1.95231      1.95231    -11.80628         0.000000      0.000000      0.057161
      5.85692     -0.00032     -5.89091         0.000000     -0.042941      0.009692
      1.95231      0.00037     -1.98152         0.000000      0.006077     -0.010204
      5.85692      0.03580     -9.84036         0.000000      0.031466      0.000276
      1.95231      0.00032     -5.89091         0.000000      0.042941      0.009692
      5.85692     -0.00037     -1.98152         0.000000     -0.006077     -0.010204
      1.95231     -0.03580     -9.84036         0.000000     -0.031466      0.000276
      3.90430      1.95231     -5.89091        -0.042941      0.000000      0.009692
      3.90498     -1.95231     -1.98152         0.006077      0.000000     -0.010204
      3.94041      1.95231     -9.84036         0.031466      0.000000      0.000276
      3.90494     -1.95231     -5.89091         0.042941      0.000000      0.009692
      3.90425      1.95231     -1.98152        -0.006077      0.000000     -0.010204
      3.86882     -1.95231     -9.84036        -0.031466      0.000000      0.000276
 -----------------------------------------------------------------------------------
    total drift:                                0.000000      0.000000      0.002211


--------------------------------------------------------------------------------------------------------



  FREE ENERGIE OF THE ION-ELECTRON SYSTEM (eV)
  ---------------------------------------------------
  free  energy   TOTEN  =      -232.38330987 eV

  energy  without entropy=     -232.38330987  energy(sigma->0) =     -232.38330987
 


--------------------------------------------------------------------------------------------------------


    POTLOK:  cpu time    0.0917: real time    0.0919


--------------------------------------------------------------------------------------------------------


     LOOP+:  cpu time  107.7867: real time  108.1600
    4ORBIT:  cpu time    0.0000: real time    0.0000
 


 total charge     
 
# of ion       s       p       d       f       tot
--------------------------------------------------
    1        1.998   5.697   0.480   0.186   8.361
    2        1.998   5.695   0.477   0.183   8.353
    3        1.998   5.696   0.473   0.185   8.352
    4        1.998   5.697   0.480   0.186   8.361
    5        1.998   5.696   0.473   0.185   8.352
    6        1.998   5.695   0.477   0.183   8.353
    7        0.316   0.476   4.893   0.000   5.685
    8        0.316   0.476   4.906   0.000   5.697
    9        0.337   0.524   4.876   0.000   5.737
   10        0.316   0.477   4.892   0.000   5.685
   11        0.316   0.476   4.904   0.000   5.696
   12        0.387   0.551   8.322   0.000   9.261
   13        1.565   3.455   0.000   0.000   5.020
   14        1.564   3.451   0.000   0.000   5.015
   15        1.566   3.454   0.000   0.000   5.020
   16        1.558   3.453   0.000   0.000   5.012
   17        1.563   3.461   0.000   0.000   5.025
   18        1.558   3.453   0.000   0.000   5.012
   19        1.565   3.466   0.000   0.000   5.031
   20        1.565   3.465   0.000   0.000   5.030
   21        1.560   3.462   0.000   0.000   5.022
   22        1.565   3.464   0.000   0.000   5.030
   23        1.565   3.466   0.000   0.000   5.031
   24        1.560   3.462   0.000   0.000   5.022
   25        1.563   3.453   0.000   0.000   5.015
   26        1.563   3.450   0.000   0.000   5.013
   27        1.559   3.459   0.000   0.000   5.018
   28        1.563   3.450   0.000   0.000   5.013
   29        1.563   3.451   0.000   0.000   5.014
   30        1.559   3.459   0.000   0.000   5.018
--------------------------------------------------
tot         42.103  99.387  35.655   1.108 178.253

 


 magnetization (x)
 
# of ion       s       p       d       f       tot
--------------------------------------------------
    1        0.001   0.001   0.013   0.008   0.022
    2        0.001   0.001   0.010   0.005   0.017
    3        0.001   0.000   0.010   0.006   0.017
    4        0.001   0.001   0.013   0.007   0.022
    5        0.001   0.000   0.010   0.006   0.017
    6        0.001   0.001   0.010   0.005   0.017
    7        0.025   0.028   3.781   0.000   3.834
    8        0.025   0.026   3.814   0.000   3.865
    9        0.028   0.038   3.554   0.000   3.620
   10        0.025   0.029   3.779   0.000   3.832
   11        0.025   0.026   3.808   0.000   3.859
   12        0.009  -0.003   1.710   0.000   1.716
   13        0.008  -0.035   0.000   0.000  -0.027
   14        0.006  -0.051   0.000   0.000  -0.045
   15        0.008  -0.035   0.000   0.000  -0.027
   16        0.006   0.009   0.000   0.000   0.015
   17        0.006  -0.025   0.000   0.000  -0.019
   18        0.006   0.010   0.000   0.000   0.016
   19        0.007  -0.034   0.000   0.000  -0.027
   20        0.007  -0.037   0.000   0.000  -0.029
   21        0.006  -0.008   0.000   0.000  -0.002
   22        0.007  -0.036   0.000   0.000  -0.029
   23        0.007  -0.036   0.000   0.000  -0.029
   24        0.006  -0.008   0.000   0.000  -0.002
   25        0.004  -0.038   0.000   0.000  -0.034
   26        0.004  -0.041   0.000   0.000  -0.037
   27        0.004  -0.002   0.000   0.000   0.002
   28        0.004  -0.041   0.000   0.000  -0.036
   29        0.004  -0.040   0.000   0.000  -0.036
   30        0.004  -0.002   0.000   0.000   0.002
--------------------------------------------------
tot          0.244  -0.299  20.510   0.038  20.493

 
 BZINTS: Fermi energy:  8.133531;219.000000 electrons
         Band energy:-409.421085;  BLOECHL correction: -0.091818

 total amount of memory used by VASP MPI-rank0    77839. kBytes
=======================================================================

   base      :      30000. kBytes
   nonlr-proj:       7028. kBytes
   fftplans  :       3031. kBytes
   grid      :       8843. kBytes
   one-center:        294. kBytes
   wavefun   :      28643. kBytes
 
  
  
 General timing and accounting informations for this job:
 ========================================================
  
                  Total CPU time used (sec):      116.783
                            User time (sec):      113.911
                          System time (sec):        2.871
                         Elapsed time (sec):      117.358
  
                   Maximum memory used (kb):      128848.
                   Average memory used (kb):           0.
  
                          Minor page faults:        45983
                          Major page faults:            0
                 Voluntary context switches:         1258
