       N       E                     dE             d eps       ncg     rms          rms(c)
DAV:   1     0.292151521938E+04    0.29215E+04   -0.65797E+04  9848   0.245E+03
DAV:   2     0.979717264635E+03   -0.19418E+04   -0.17524E+04 10280   0.633E+02
DAV:   3     0.192563568885E+03   -0.78715E+03   -0.71513E+03 10648   0.326E+02
DAV:   4    -0.143879969523E+03   -0.33644E+03   -0.31956E+03 14840   0.174E+02
DAV:   5    -0.211878804074E+03   -0.67999E+02   -0.65875E+02 16560   0.909E+01    0.661E+01
RMM:   6    -0.190576685399E+03    0.21302E+02   -0.62282E+02 15367   0.106E+02    0.980E+01
RMM:   7    -0.189448520527E+03    0.11282E+01   -0.11736E+02 16026   0.366E+01    0.399E+01
RMM:   8    -0.184054284369E+03    0.53942E+01   -0.45923E+01 12025   0.380E+01    0.188E+01
RMM:   9    -0.186809006380E+03   -0.27547E+01   -0.31075E+01 14970   0.176E+01    0.143E+01
RMM:  10    -0.187098576595E+03   -0.28957E+00   -0.67539E+00 16473   0.686E+00    0.725E+00
RMM:  11    -0.186803023810E+03    0.29555E+00   -0.30897E+00 14891   0.742E+00    0.455E+00
RMM:  12    -0.186884601144E+03   -0.81577E-01   -0.12214E+00 16722   0.275E+00    0.285E+00
RMM:  13    -0.186911631283E+03   -0.27030E-01   -0.28929E-01 16318   0.161E+00    0.172E+00
RMM:  14    -0.186924899706E+03   -0.13268E-01   -0.15723E-01 15193   0.116E+00    0.124E+00
RMM:  15    -0.186931684879E+03   -0.67852E-02   -0.62215E-02 14329   0.771E-01    0.826E-01
RMM:  16    -0.186934283639E+03   -0.25988E-02   -0.31763E-02 12252   0.469E-01    0.544E-01
RMM:  17    -0.186935545684E+03   -0.12620E-02   -0.21117E-02 11646   0.510E-01    0.361E-01
RMM:  18    -0.186937027518E+03   -0.14818E-02   -0.16641E-02 11097   0.439E-01    0.159E-01
RMM:  19    -0.186937612730E+03   -0.58521E-03   -0.69835E-03  9151   0.368E-01
   1 F= -.18693761E+03 E0= -.18693761E+03  d E =0.000000E+00  mag=    14.0000
