       N       E                     dE             d eps       ncg     rms          rms(c)
DAV:   1     0.225385211073E+04    0.22539E+04   -0.53146E+04  2448   0.241E+03
DAV:   2     0.709943808017E+03   -0.15439E+04   -0.13938E+04  2616   0.607E+02
DAV:   3     0.100403639967E+03   -0.60954E+03   -0.56133E+03  2864   0.317E+02
DAV:   4    -0.133085039537E+03   -0.23349E+03   -0.22161E+03  3816   0.164E+02
DAV:   5    -0.174942478155E+03   -0.41857E+02   -0.40145E+02  4160   0.776E+01    0.557E+01
RMM:   6    -0.155374994229E+03    0.19567E+02   -0.47792E+02  3930   0.976E+01    0.912E+01
RMM:   7    -0.156088828555E+03   -0.71383E+00   -0.82058E+01  3952   0.345E+01    0.490E+01
RMM:   8    -0.150121721828E+03    0.59671E+01   -0.58094E+01  3000   0.485E+01    0.244E+01
RMM:   9    -0.153246558978E+03   -0.31248E+01   -0.35319E+01  3735   0.193E+01    0.196E+01
RMM:  10    -0.153501451763E+03   -0.25489E+00   -0.63520E+00  3863   0.985E+00    0.130E+01
RMM:  11    -0.152912165829E+03    0.58929E+00   -0.32745E+00  3834   0.738E+00    0.110E+01
RMM:  12    -0.152981299719E+03   -0.69134E-01   -0.15538E+00  4241   0.283E+00    0.988E+00
RMM:  13    -0.152987837843E+03   -0.65381E-02   -0.41847E-01  3854   0.226E+00    0.873E+00
RMM:  14    -0.152943225298E+03    0.44613E-01   -0.19584E-01  3847   0.174E+00    0.612E+00
RMM:  15    -0.152904484668E+03    0.38741E-01   -0.17714E-01  3731   0.130E+00    0.485E+00
RMM:  16    -0.152891323856E+03    0.13161E-01   -0.12844E-01  3646   0.101E+00    0.306E+00
RMM:  17    -0.152886464517E+03    0.48593E-02   -0.64449E-02  3532   0.874E-01    0.207E+00
RMM:  18    -0.152880792466E+03    0.56721E-02   -0.41059E-02  3389   0.810E-01    0.128E+00
RMM:  19    -0.152881806658E+03   -0.10142E-02   -0.22019E-02  3024   0.590E-01    0.819E-01
RMM:  20    -0.152882395621E+03   -0.58896E-03   -0.15417E-02  2785   0.559E-01    0.378E-01
RMM:  21    -0.152882726806E+03   -0.33119E-03   -0.55159E-03  2274   0.388E-01
   1 F= -.15288273E+03 E0= -.15288273E+03  d E =0.000000E+00  mag=    12.9943
