 vasp.5.4.4.18Apr17-6-g9f103f2a35 (build Oct 03 2018 13:58:34) complex          
  
 executed on             LinuxIFC date 2019.06.04  01:48:36
 running on   40 total cores
 distrk:  each k-point on   20 cores,    2 groups
 distr:  one band on NCORES_PER_BAND=  10 cores,    2 groups


--------------------------------------------------------------------------------------------------------


 INCAR:
 POTCAR:    PAW_PBE La 06Sep2000                  
 POTCAR:    PAW_PBE Mn 06Sep2000                  
 POTCAR:    PAW_PBE Ni 02Aug2007                  
 POTCAR:    PAW_PBE O 08Apr2002                   

 ----------------------------------------------------------------------------- 
|                                                                             |
|           W    W    AA    RRRRR   N    N  II  N    N   GGGG   !!!           |
|           W    W   A  A   R    R  NN   N  II  NN   N  G    G  !!!           |
|           W    W  A    A  R    R  N N  N  II  N N  N  G       !!!           |
|           W WW W  AAAAAA  RRRRR   N  N N  II  N  N N  G  GGG   !            |
|           WW  WW  A    A  R   R   N   NN  II  N   NN  G    G                |
|           W    W  A    A  R    R  N    N  II  N    N   GGGG   !!!           |
|                                                                             |
|      You have enabled k-point parallelism (KPAR>1).                         |
|      This developmental code was originally  written by Paul Kent at ORNL,  |
|      and carefully double checked in Vienna.                                |
|      GW as well as linear response parallelism added by Martijn Marsman     |
|      and Georg Kresse.                                                      |
|      Carefully verify results versus KPAR=1.                                |
|      Report problems to Paul Kent and Vienna.                               |
|                                                                             |
 ----------------------------------------------------------------------------- 

 POTCAR:    PAW_PBE La 06Sep2000                  
   VRHFIN =La : [core=Kr4d]                                                     
   LEXCH  = PE                                                                  
   EATOM  =   865.9763 eV,   63.6475 Ry                                         
                                                                                
   TITEL  = PAW_PBE La 06Sep2000                                                
   LULTRA =        F    use ultrasoft PP ?                                      
   IUNSCR =        1    unscreen: 0-lin 1-nonlin 2-no                           
   RPACOR =    2.300    partial core radius                                     
   POMASS =  138.900; ZVAL   =   11.000    mass and valenz                      
   RCORE  =    2.800    outmost cutoff radius                                   
   RWIGS  =    2.900; RWIGS  =    1.535    wigner-seitz radius (au A)           
   ENMAX  =  219.292; ENMIN  =  164.469 eV                                      
   RCLOC  =    1.601    cutoff for local pot                                    
   LCOR   =        T    correct aug charges                                     
   LPAW   =        T    paw PP                                                  
   EAUG   =  583.575                                                            
   DEXC   =    0.000                                                            
   RMAX   =    2.853    core radius for proj-oper                               
   RAUG   =    1.300    factor for augmentation sphere                          
   RDEP   =    2.802    radius for radial grids                                 
   RDEPT  =    2.156    core radius for aug-charge                              
                                                                                
   Atomic configuration                                                         
   14 entries                                                                   
     n  l   j            E        occ.                                          
     1  0  0.50    -38741.0879   2.0000                                         
     2  0  0.50     -6166.6801   2.0000                                         
     2  1  1.50     -5526.1593   6.0000                                         
     3  0  0.50     -1319.0200   2.0000                                         
     3  1  1.50     -1114.5963   6.0000                                         
     3  2  2.50      -821.1793  10.0000                                         
     4  0  0.50      -266.3851   2.0000                                         
     4  1  1.50      -199.9276   6.0000                                         
     4  2  2.50      -103.8239  10.0000                                         
     5  0  0.50       -38.9172   2.0000                                         
     6  0  0.50        -3.6792   2.0000                                         
     5  1  1.50       -22.3948   6.0000                                         
     5  2  2.50        -3.0911   0.9999                                         
     4  3  2.50        -4.3603   0.0001                                         
   Description                                                                  
     l       E           TYP  RCUT    TYP  RCUT                                 
     0    -38.9171645     23  2.800                                             
     0     -3.6792381     23  2.800                                             
     1    -22.3948300     23  2.500                                             
     1     27.2116520     23  2.500                                             
     2     -3.0910934     23  2.500                                             
     2      1.0119135     23  2.500                                             
     3     -4.3602911     23  2.800                                             
     3     -5.7208737     23  2.800                                             
  local pseudopotential read in
  partial core-charges read in
  partial kinetic energy density read in
  atomic valenz-charges read in
  non local Contribution for L=           0  read in
    real space projection operators read in
  non local Contribution for L=           0  read in
    real space projection operators read in
  non local Contribution for L=           1  read in
    real space projection operators read in
  non local Contribution for L=           1  read in
    real space projection operators read in
  non local Contribution for L=           2  read in
    real space projection operators read in
  non local Contribution for L=           2  read in
    real space projection operators read in
  non local Contribution for L=           3  read in
    real space projection operators read in
  non local Contribution for L=           3  read in
    real space projection operators read in
    PAW grid and wavefunctions read in
 
   number of l-projection  operators is LMAX  =           8
   number of lm-projection operators is LMMAX =          32
 
 POTCAR:    PAW_PBE Mn 06Sep2000                  
   VRHFIN =Mn: d6 s1                                                            
   LEXCH  = PE                                                                  
   EATOM  =   416.7541 eV,   30.6306 Ry                                         
                                                                                
   TITEL  = PAW_PBE Mn 06Sep2000                                                
   LULTRA =        F    use ultrasoft PP ?                                      
   IUNSCR =        1    unscreen: 0-lin 1-nonlin 2-no                           
   RPACOR =    2.000    partial core radius                                     
   POMASS =   54.938; ZVAL   =    7.000    mass and valenz                      
   RCORE  =    2.300    outmost cutoff radius                                   
   RWIGS  =    2.500; RWIGS  =    1.323    wigner-seitz radius (au A)           
   ENMAX  =  269.864; ENMIN  =  202.398 eV                                      
   RCLOC  =    1.725    cutoff for local pot                                    
   LCOR   =        T    correct aug charges                                     
   LPAW   =        T    paw PP                                                  
   EAUG   =  500.711                                                            
   DEXC   =    0.000                                                            
   RMAX   =    2.343    core radius for proj-oper                               
   RAUG   =    1.300    factor for augmentation sphere                          
   RDEP   =    2.338    radius for radial grids                                 
   RDEPT  =    1.911    core radius for aug-charge                              
                                                                                
   Atomic configuration                                                         
    9 entries                                                                   
     n  l   j            E        occ.                                          
     1  0  0.50     -6424.8288   2.0000                                         
     2  0  0.50      -739.1154   2.0000                                         
     2  1  1.50      -625.3949   6.0000                                         
     3  0  0.50       -81.6100   2.0000                                         
     3  1  1.50       -50.4667   6.0000                                         
     3  2  2.50        -3.3745   6.0000                                         
     4  0  0.50        -4.1331   1.0000                                         
     4  1  0.50        -4.0817   0.0000                                         
     4  3  2.50        -1.3606   0.0000                                         
   Description                                                                  
     l       E           TYP  RCUT    TYP  RCUT                                 
     2     -3.3744664     23  2.300                                             
     2     -4.7350490     23  2.300                                             
     0     -4.1331408     23  2.300                                             
     0      7.6656614     23  2.300                                             
     1     -2.7211652     23  2.300                                             
     1     20.4087390     23  2.300                                             
  local pseudopotential read in
  partial core-charges read in
  partial kinetic energy density read in
  atomic valenz-charges read in
  non local Contribution for L=           2  read in
    real space projection operators read in
  non local Contribution for L=           2  read in
    real space projection operators read in
  non local Contribution for L=           0  read in
    real space projection operators read in
  non local Contribution for L=           0  read in
    real space projection operators read in
  non local Contribution for L=           1  read in
    real space projection operators read in
  non local Contribution for L=           1  read in
    real space projection operators read in
    PAW grid and wavefunctions read in
 
   number of l-projection  operators is LMAX  =           6
   number of lm-projection operators is LMMAX =          18
 
 POTCAR:    PAW_PBE Ni 02Aug2007                  
   VRHFIN =Ni:                                                                  
   LEXCH  = PE                                                                  
   EATOM  =  1077.6739 eV,   79.2068 Ry                                         
                                                                                
   TITEL  = PAW_PBE Ni 02Aug2007                                                
   LULTRA =        F    use ultrasoft PP ?                                      
   IUNSCR =        1    unscreen: 0-lin 1-nonlin 2-no                           
   RPACOR =    2.000    partial core radius                                     
   POMASS =   58.690; ZVAL   =   10.000    mass and valenz                      
   RCORE  =    2.300    outmost cutoff radius                                   
   RWIGS  =    2.430; RWIGS  =    1.286    wigner-seitz radius (au A)           
   ENMAX  =  269.532; ENMIN  =  202.149 eV                                      
   RCLOC  =    1.201    cutoff for local pot                                    
   LCOR   =        T    correct aug charges                                     
   LPAW   =        T    paw PP                                                  
   EAUG   =  544.565                                                            
   DEXC   =    0.000                                                            
   RMAX   =    2.357    core radius for proj-oper                               
   RAUG   =    1.300    factor for augmentation sphere                          
   RDEP   =    2.390    radius for radial grids                                 
   RDEPT  =    1.838    core radius for aug-charge                              
                                                                                
   Atomic configuration                                                         
    9 entries                                                                   
     n  l   j            E        occ.                                          
     1  0  0.50     -8206.4253   2.0000                                         
     2  0  0.50      -976.1748   2.0000                                         
     2  1  1.50      -839.0571   6.0000                                         
     3  0  0.50      -105.9991   2.0000                                         
     3  1  1.50       -66.4603   6.0000                                         
     3  2  2.50        -4.6458   9.0000                                         
     4  0  0.50        -4.4926   1.0000                                         
     4  1  1.50        -4.0817   0.0000                                         
     4  3  2.50        -1.3606   0.0000                                         
   Description                                                                  
     l       E           TYP  RCUT    TYP  RCUT                                 
     2     -4.6457903     23  2.300                                             
     2     -6.0063729     23  2.300                                             
     0     -4.4925590     23  2.300                                             
     0      5.0102601     23  2.300                                             
     1     -2.7211652     23  2.300                                             
     1     16.5183231     23  2.300                                             
  local pseudopotential read in
  partial core-charges read in
  partial kinetic energy density read in
  atomic valenz-charges read in
  non local Contribution for L=           2  read in
    real space projection operators read in
  non local Contribution for L=           2  read in
    real space projection operators read in
  non local Contribution for L=           0  read in
    real space projection operators read in
  non local Contribution for L=           0  read in
    real space projection operators read in
  non local Contribution for L=           1  read in
    real space projection operators read in
  non local Contribution for L=           1  read in
    real space projection operators read in
    PAW grid and wavefunctions read in
 
   number of l-projection  operators is LMAX  =           6
   number of lm-projection operators is LMMAX =          18
 
 POTCAR:    PAW_PBE O 08Apr2002                   
   VRHFIN =O: s2p4                                                              
   LEXCH  = PE                                                                  
   EATOM  =   432.3788 eV,   31.7789 Ry                                         
                                                                                
   TITEL  = PAW_PBE O 08Apr2002                                                 
   LULTRA =        F    use ultrasoft PP ?                                      
   IUNSCR =        1    unscreen: 0-lin 1-nonlin 2-no                           
   RPACOR =    1.200    partial core radius                                     
   POMASS =   16.000; ZVAL   =    6.000    mass and valenz                      
   RCORE  =    1.520    outmost cutoff radius                                   
   RWIGS  =    1.550; RWIGS  =    0.820    wigner-seitz radius (au A)           
   ENMAX  =  400.000; ENMIN  =  300.000 eV                                      
   ICORE  =        2    local potential                                         
   LCOR   =        T    correct aug charges                                     
   LPAW   =        T    paw PP                                                  
   EAUG   =  605.392                                                            
   DEXC   =    0.000                                                            
   RMAX   =    1.553    core radius for proj-oper                               
   RAUG   =    1.300    factor for augmentation sphere                          
   RDEP   =    1.550    radius for radial grids                                 
   RDEPT  =    1.329    core radius for aug-charge                              
                                                                                
   Atomic configuration                                                         
    4 entries                                                                   
     n  l   j            E        occ.                                          
     1  0  0.50      -514.6923   2.0000                                         
     2  0  0.50       -23.9615   2.0000                                         
     2  1  0.50        -9.0305   4.0000                                         
     3  2  1.50        -9.5241   0.0000                                         
   Description                                                                  
     l       E           TYP  RCUT    TYP  RCUT                                 
     0    -23.9615318     23  1.200                                             
     0     -9.5240782     23  1.200                                             
     1     -9.0304911     23  1.520                                             
     1      8.1634956     23  1.520                                             
     2     -9.5240782      7  1.500                                             
  local pseudopotential read in
  partial core-charges read in
  partial kinetic energy density read in
  kinetic energy density of atom read in
  atomic valenz-charges read in
  non local Contribution for L=           0  read in
    real space projection operators read in
  non local Contribution for L=           0  read in
    real space projection operators read in
  non local Contribution for L=           1  read in
    real space projection operators read in
  non local Contribution for L=           1  read in
    real space projection operators read in
    PAW grid and wavefunctions read in
 
   number of l-projection  operators is LMAX  =           4
   number of lm-projection operators is LMMAX =           8
 
 Optimization of the real space projectors (new method)

 maximal supplied QI-value         = 13.42
 optimisation between [QCUT,QGAM] = [ 11.67, 23.35] = [ 38.16,152.62] Ry 
 Optimized for a Real-space Cutoff    1.63 Angstroem

   l    n(q)    QCUT    max X(q) W(low)/X(q) W(high)/X(q)  e(spline) 
   0     11    11.673    13.882    0.27E-04    0.79E-05    0.11E-06
   0     11    11.673    12.184    0.39E-04    0.13E-04    0.19E-06
   1     11    11.673     4.523    0.73E-05    0.76E-05    0.12E-06
   1     11    11.673     4.424    0.87E-05    0.13E-04    0.19E-06
   2     10    11.673    52.481    0.65E-04    0.36E-04    0.18E-06
   2     10    11.673    38.501    0.61E-04    0.33E-04    0.17E-06
   3     10    11.673    65.631    0.17E-03    0.14E-03    0.37E-06
   3     10    11.673    56.854    0.17E-03    0.14E-03    0.37E-06
 Optimization of the real space projectors (new method)

 maximal supplied QI-value         = 16.25
 optimisation between [QCUT,QGAM] = [ 11.54, 23.24] = [ 37.28,151.24] Ry 
 Optimized for a Real-space Cutoff    1.53 Angstroem

   l    n(q)    QCUT    max X(q) W(low)/X(q) W(high)/X(q)  e(spline) 
   2     10    11.539   110.144    0.12E-03    0.13E-03    0.25E-06
   2     10    11.539   103.200    0.12E-03    0.13E-03    0.25E-06
   0     11    11.539    68.437    0.46E-04    0.21E-04    0.32E-06
   0     11    11.539    33.971    0.37E-04    0.19E-04    0.29E-06
   1     10    11.539    17.065    0.51E-04    0.22E-04    0.13E-06
   1     10    11.539    12.540    0.41E-04    0.18E-04    0.11E-06
 Optimization of the real space projectors (new method)

 maximal supplied QI-value         = 16.25
 optimisation between [QCUT,QGAM] = [ 11.54, 23.24] = [ 37.28,151.24] Ry 
 Optimized for a Real-space Cutoff    1.45 Angstroem

   l    n(q)    QCUT    max X(q) W(low)/X(q) W(high)/X(q)  e(spline) 
   2      9    11.539    60.317    0.19E-03    0.47E-04    0.16E-06
   2      9    11.539    55.921    0.19E-03    0.48E-04    0.16E-06
   0     10    11.539    51.690    0.80E-04    0.50E-04    0.24E-06
   0     10    11.539    30.015    0.73E-04    0.45E-04    0.22E-06
   1     10    11.539    18.849    0.87E-04    0.16E-03    0.71E-07
   1     10    11.539    14.624    0.73E-04    0.13E-03    0.64E-07
 Optimization of the real space projectors (new method)

 maximal supplied QI-value         = 24.76
 optimisation between [QCUT,QGAM] = [ 11.64, 23.27] = [ 37.91,151.63] Ry 
 Optimized for a Real-space Cutoff    1.14 Angstroem

   l    n(q)    QCUT    max X(q) W(low)/X(q) W(high)/X(q)  e(spline) 
   0      8    11.635    20.381    0.10E-03    0.33E-03    0.24E-06
   0      8    11.635    15.268    0.11E-03    0.35E-03    0.26E-06
   1      7    11.635     5.964    0.24E-03    0.31E-03    0.30E-06
   1      7    11.635     5.382    0.22E-03    0.25E-03    0.26E-06
  PAW_PBE La 06Sep2000                  :
 energy of atom  1       EATOM= -865.9763
 kinetic energy error for atom=    0.0009 (will be added to EATOM!!)
  PAW_PBE Mn 06Sep2000                  :
 energy of atom  2       EATOM= -416.7541
 kinetic energy error for atom=    0.0024 (will be added to EATOM!!)
  PAW_PBE Ni 02Aug2007                  :
 energy of atom  3       EATOM=-1077.6739
 kinetic energy error for atom=    0.0030 (will be added to EATOM!!)
  PAW_PBE O 08Apr2002                   :
 energy of atom  4       EATOM= -432.3788
 kinetic energy error for atom=    0.0208 (will be added to EATOM!!)
 
 
 POSCAR: SCEL6_2_1_3_0_0_1/5                     
  positions in direct lattice
  velocities in cartesian coordinates
 exchange correlation table for  LEXCH =        8
   RHO(1)=    0.500       N(1)  =     2000
   RHO(2)=  100.500       N(2)  =     4000
 


--------------------------------------------------------------------------------------------------------


 ion  position               nearest neighbor table
   1  0.500  0.500  0.333-  20 2.73  23 2.73  26 2.73  29 2.73  25 2.73  22 2.73  28 2.73  19 2.73
                            14 2.73  17 2.73  14 2.73  17 2.73   7 3.35   7 3.35   8 3.35   8 3.35
   2  0.000  0.000  0.669-  21 2.72  24 2.72  27 2.72  30 2.72  16 2.73  16 2.73  13 2.73  13 2.73
                            28 2.76  19 2.76  25 2.76  22 2.76  12 3.33  12 3.33  10 3.34  10 3.34
   3  0.500  0.500  0.998-  21 2.72  24 2.72  27 2.72  30 2.72  15 2.73  15 2.73  18 2.73  18 2.73
                            29 2.76  20 2.76  26 2.76  23 2.76  10 3.33  10 3.33  12 3.34  12 3.34
   4  0.000  0.000  0.333-  20 2.73  23 2.73  26 2.73  29 2.73  25 2.73  22 2.73  28 2.73  19 2.73
                            14 2.73  17 2.73  17 2.73  14 2.73   7 3.35   7 3.35   8 3.35   8 3.35
   5  0.500  0.500  0.669-  21 2.72  24 2.72  27 2.72  30 2.72  16 2.73  16 2.73  13 2.73  13 2.73
                            28 2.76  19 2.76  25 2.76  22 2.76  12 3.33  12 3.33  10 3.34  10 3.34
   6  0.000  0.000  0.998-  21 2.72  24 2.72  27 2.72  30 2.72  15 2.73  15 2.73  18 2.73  18 2.73
                            29 2.76  20 2.76  26 2.76  23 2.76  10 3.33  10 3.33  12 3.34  12 3.34
   7  0.500  0.000  0.167-  20 1.90  23 1.90  26 1.90  29 1.90  14 1.91  18 1.91   1 3.35   4 3.35
                             1 3.35   4 3.35   3 3.36   3 3.36   6 3.36   6 3.36
   8  0.000  0.500  0.500-  19 1.90  22 1.90  25 1.90  28 1.90  17 1.91  13 1.91   1 3.35   4 3.35
                             4 3.35   1 3.35   2 3.36   2 3.36   5 3.36   5 3.36
   9  0.500  0.000  0.500-  16 1.94  19 1.97  22 1.97  25 1.97  28 1.97  14 1.97   1 3.35   4 3.35
                             1 3.35   4 3.35   2 3.36   5 3.36   2 3.36   5 3.36
  10  0.000  0.500  0.834-  15 1.92  21 1.93  24 1.93  27 1.93  30 1.93  13 1.96   3 3.33   6 3.33
                             6 3.33   3 3.33   2 3.34   5 3.34   2 3.34   5 3.34
  11  0.000  0.500  0.166-  15 1.94  20 1.97  23 1.97  26 1.97  29 1.97  17 1.97   1 3.35   4 3.35
                             4 3.35   1 3.35   3 3.36   6 3.36   6 3.36   3 3.36
  12  0.500  0.000  0.833-  16 1.92  21 1.93  24 1.93  27 1.93  30 1.93  18 1.96   2 3.33   5 3.33
                             5 3.33   2 3.33   3 3.34   3 3.34   6 3.34   6 3.34
  13  0.000  0.500  0.665-   8 1.91  10 1.96   2 2.73   5 2.73   2 2.73   5 2.73
  14  0.500  0.000  0.331-   7 1.91   9 1.97   1 2.73   4 2.73   1 2.73   4 2.73
  15  0.000  0.500  0.999-  10 1.92  11 1.94   3 2.73   6 2.73   6 2.73   3 2.73
  16  0.500  0.000  0.668-  12 1.92   9 1.94   2 2.73   5 2.73   5 2.73   2 2.73
  17  0.000  0.500  0.336-   8 1.91  11 1.97   1 2.73   4 2.73   4 2.73   1 2.73
  18  0.500  0.000  0.002-   7 1.91  12 1.96   3 2.73   6 2.73   3 2.73   6 2.73
  19  0.755  0.745  0.499-   8 1.90   9 1.97   1 2.73   4 2.73   2 2.76   5 2.76
  20  0.255  0.245  0.167-   7 1.90  11 1.97   1 2.73   4 2.73   3 2.76   6 2.76
  21  0.750  0.750  0.833-  10 1.93  12 1.93   2 2.72   5 2.72   3 2.72   6 2.72
  22  0.245  0.255  0.499-   8 1.90   9 1.97   1 2.73   4 2.73   2 2.76   5 2.76
  23  0.745  0.755  0.167-   7 1.90  11 1.97   1 2.73   4 2.73   3 2.76   6 2.76
  24  0.250  0.250  0.833-  10 1.93  12 1.93   2 2.72   5 2.72   3 2.72   6 2.72
  25  0.755  0.255  0.499-   8 1.90   9 1.97   1 2.73   4 2.73   2 2.76   5 2.76
  26  0.255  0.755  0.167-   7 1.90  11 1.97   1 2.73   4 2.73   3 2.76   6 2.76
  27  0.750  0.250  0.833-  10 1.93  12 1.93   2 2.72   5 2.72   3 2.72   6 2.72
  28  0.245  0.745  0.499-   8 1.90   9 1.97   1 2.73   4 2.73   2 2.76   5 2.76
  29  0.745  0.245  0.167-   7 1.90  11 1.97   1 2.73   4 2.73   3 2.76   6 2.76
  30  0.250  0.750  0.833-  10 1.93  12 1.93   2 2.72   5 2.72   3 2.72   6 2.72
 
  LATTYP: Found a simple tetragonal cell.
 ALAT       =     5.4649581518
 C/A-ratio  =     2.1248601461
  
  Lattice vectors:
  
 A1 = (   3.8643089680,   3.8643089680,   0.0000000000)
 A2 = (   3.8643089680,  -3.8643089680,   0.0000000000)
 A3 = (   0.0000000000,   0.0000000000, -11.6122717770)


Analysis of symmetry for initial positions (statically):
=====================================================================
 Subroutine PRICEL returns:
 Original cell was already a primitive cell.
 

 Routine SETGRP: Setting up the symmetry group for a 
 simple tetragonal supercell.


 Subroutine GETGRP returns: Found 16 space group operations
 (whereof  4 operations were pure point group operations)
 out of a pool of 16 trial point group operations.


The static configuration has the point symmetry C_2v.
 The point group associated with its full space group is D_4h.


Analysis of symmetry for dynamics (positions and initial velocities):
=====================================================================
 Subroutine PRICEL returns:
 Original cell was already a primitive cell.
 

 Routine SETGRP: Setting up the symmetry group for a 
 simple tetragonal supercell.


 Subroutine GETGRP returns: Found 16 space group operations
 (whereof  4 operations were pure point group operations)
 out of a pool of 16 trial point group operations.


The dynamic configuration has the point symmetry C_2v.
 The point group associated with its full space group is D_4h.


Analysis of structural, dynamic, and magnetic symmetry:
=====================================================================
 Subroutine PRICEL returns:
 Original cell was already a primitive cell.
 

 Routine SETGRP: Setting up the symmetry group for a 
 simple tetragonal supercell.


 Subroutine GETGRP returns: Found 16 space group operations
 (whereof  4 operations were pure point group operations)
 out of a pool of 16 trial point group operations.


The magnetic configuration has the point symmetry C_2v.
 The point group associated with its full space group is D_4h.


 Subroutine INISYM returns: Found 16 space group operations
 (whereof  4 operations are pure point group operations),
 and found     1 'primitive' translations

 
 
 KPOINTS: Automatic mesh                          

Automatic generation of k-mesh.
 generate k-points for:    4    4    2
Space group operators:
 irot       det(A)        alpha          n_x          n_y          n_z        tau_x        tau_y        tau_z
    1     1.000000     0.000000     1.000000     0.000000     0.000000     0.000000     0.000000     0.000000
    2     1.000000   180.000000     0.000000     0.000000     1.000000     0.000000     0.000000     0.000000
    3    -1.000000   180.000000     0.707107    -0.707107     0.000000     0.000000     0.000000     0.000000
    4    -1.000000   180.000000     0.707107     0.707107     0.000000     0.000000     0.000000     0.000000
    5    -1.000000     0.000000     1.000000     0.000000     0.000000     0.500000     0.500000     0.666667
    6     1.000000    90.000000     0.000000     0.000000     1.000000     0.500000     0.500000     0.000000
    7    -1.000000    90.000000     0.000000     0.000000     1.000000     0.000000     0.000000     0.666667
    8    -1.000000   180.000000     0.000000     0.000000     1.000000     0.500000     0.500000     0.666667
    9     1.000000    90.000000     0.000000     0.000000    -1.000000     0.500000     0.500000     0.000000
   10    -1.000000    90.000000     0.000000     0.000000    -1.000000     0.000000     0.000000     0.666667
   11     1.000000   180.000000     0.707107    -0.707107     0.000000     0.500000     0.500000     0.666667
   12     1.000000   180.000000     1.000000     0.000000     0.000000     0.000000     0.000000     0.666667
   13    -1.000000   180.000000     1.000000     0.000000     0.000000     0.500000     0.500000     0.000000
   14     1.000000   180.000000     0.707107     0.707107     0.000000     0.500000     0.500000     0.666667
   15     1.000000   180.000000     0.000000     1.000000     0.000000     0.000000     0.000000     0.666667
   16    -1.000000   180.000000     0.000000     1.000000     0.000000     0.500000     0.500000     0.000000
 
 Subroutine IBZKPT returns following result:
 ===========================================
 
 Found     12 irreducible k-points:
 
 Following reciprocal coordinates:
            Coordinates               Weight
  0.000000  0.000000  0.000000      1.000000
  0.250000  0.000000  0.000000      4.000000
  0.500000  0.000000  0.000000      2.000000
  0.250000  0.250000  0.000000      4.000000
  0.500000  0.250000  0.000000      4.000000
  0.500000  0.500000  0.000000      1.000000
  0.000000  0.000000  0.500000      1.000000
  0.250000  0.000000  0.500000      4.000000
  0.500000  0.000000  0.500000      2.000000
  0.250000  0.250000  0.500000      4.000000
  0.500000  0.250000  0.500000      4.000000
  0.500000  0.500000  0.500000      1.000000
 
 Following cartesian coordinates:
            Coordinates               Weight
  0.000000  0.000000  0.000000      1.000000
  0.032347  0.032347  0.000000      4.000000
  0.064695  0.064695  0.000000      2.000000
  0.064695  0.000000  0.000000      4.000000
  0.097042  0.032347  0.000000      4.000000
  0.129389  0.000000  0.000000      1.000000
  0.000000  0.000000 -0.043058      1.000000
  0.032347  0.032347 -0.043058      4.000000
  0.064695  0.064695 -0.043058      2.000000
  0.064695  0.000000 -0.043058      4.000000
  0.097042  0.032347 -0.043058      4.000000
  0.129389  0.000000 -0.043058      1.000000
 
 TETIRR: Found     48 inequivalent tetrahedra from      192


--------------------------------------------------------------------------------------------------------




 Dimension of arrays:
   k-points           NKPTS =     12   k-points in BZ     NKDIM =     12   number of bands    NBANDS=    146
   number of dos      NEDOS =    301   number of ions     NIONS =     30
   non local maximal  LDIM  =      8   non local SUM 2l+1 LMDIM =     32
   total plane-waves  NPLWV = 158760
   max r-space proj   IRMAX =   8311   max aug-charges    IRDMAX=  24117
   dimension x,y,z NGX =    42 NGY =   42 NGZ =   90
   dimension x,y,z NGXF=    84 NGYF=   84 NGZF=  180
   support grid    NGXF=    84 NGYF=   84 NGZF=  180
   ions per type =               6   2   4  18
   NGX,Y,Z   is equivalent  to a cutoff of  12.78, 12.78, 12.88 a.u.
   NGXF,Y,Z  is equivalent  to a cutoff of  25.55, 25.55, 25.77 a.u.

 SYSTEM =  final                                   
 POSCAR =  SCEL6_2_1_3_0_0_1/5                     

 Startparameter for this run:
   NWRITE =      2    write-flag & timer
   PREC   = accura    normal or accurate (medium, high low for compatibility)
   ISTART =      0    job   : 0-new  1-cont  2-samecut
   ICHARG =      1    charge: 1-file 2-atom 10-const
   ISPIN  =      2    spin polarized calculation?
   LNONCOLLINEAR =      F non collinear calculations
   LSORBIT =      F    spin-orbit coupling
   INIWAV =      1    electr: 0-lowe 1-rand  2-diag
   LASPH  =      F    aspherical Exc in radial PAW
   METAGGA=      F    non-selfconsistent MetaGGA calc.

 Electronic Relaxation 1
   ENCUT  =  520.0 eV  38.22 Ry    6.18 a.u.  10.16 10.16 21.59*2*pi/ulx,y,z
   ENINI  =  520.0     initial cutoff
   ENAUG  =  605.4 eV  augmentation charge cutoff
   NELM   =    100;   NELMIN=  2; NELMDL= -5     # of ELM steps 
   EDIFF  = 0.1E-02   stopping-criterion for ELM
   LREAL  =      T    real-space projection
   NLSPLINE    = F    spline interpolate recip. space projectors
   LCOMPAT=      F    compatible to vasp.4.4
   GGA_COMPAT  = T    GGA compatible to vasp.4.4-vasp.4.6
   LMAXPAW     = -100 max onsite density
   LMAXMIX     =    6 max onsite mixed and CHGCAR
   VOSKOWN=      0    Vosko Wilk Nusair interpolation
   ROPT   =   -0.00025  -0.00025  -0.00025  -0.00025
 Ionic relaxation
   EDIFFG = 0.1E-01   stopping-criterion for IOM
   NSW    =      0    number of steps for IOM
   NBLOCK =      1;   KBLOCK =      1    inner block; outer block 
   IBRION =     -1    ionic relax: 0-MD 1-quasi-New 2-CG
   NFREE  =      0    steps in history (QN), initial steepest desc. (CG)
   ISIF   =      2    stress and relaxation
   IWAVPR =     10    prediction:  0-non 1-charg 2-wave 3-comb
   ISYM   =      2    0-nonsym 1-usesym 2-fastsym
   LCORR  =      T    Harris-Foulkes like correction to forces

   POTIM  = 0.5000    time-step for ionic-motion
   TEIN   =    0.0    initial temperature
   TEBEG  =    0.0;   TEEND  =   0.0 temperature during run
   SMASS  =  -3.00    Nose mass-parameter (am)
   estimated Nose-frequenzy (Omega)   =  0.10E-29 period in steps =****** mass=  -0.683E-27a.u.
   SCALEE = 1.0000    scale energy and forces
   NPACO  =    256;   APACO  = 16.0  distance and # of slots for P.C.
   PSTRESS=    0.0 pullay stress

  Mass of Ions in am
   POMASS = 138.90 54.94 58.69 16.00
  Ionic Valenz
   ZVAL   =  11.00  7.00 10.00  6.00
  Atomic Wigner-Seitz radii
   RWIGS  =  -1.00 -1.00 -1.00 -1.00
  virtual crystal weights 
   VCA    =   1.00  1.00  1.00  1.00
   NELECT =     228.0000    total number of electrons
   NUPDOWN=      -1.0000    fix difference up-down

 DOS related values:
   EMIN   =  10.00;   EMAX   =-10.00  energy-range for DOS
   EFERMI =   0.00
   ISMEAR =    -5;   SIGMA  =   0.05  broadening in eV -4-tet -1-fermi 0-gaus

 Electronic relaxation 2 (details)
   IALGO  =     68    algorithm
   LDIAG  =      T    sub-space diagonalisation (order eigenvalues)
   LSUBROT=      F    optimize rotation matrix (better conditioning)
   TURBO    =      0    0=normal 1=particle mesh
   IRESTART =      0    0=no restart 2=restart with 2 vectors
   NREBOOT  =      0    no. of reboots
   NMIN     =      0    reboot dimension
   EREF     =   0.00    reference energy to select bands
   IMIX   =      4    mixing-type and parameters
     AMIX     =   0.40;   BMIX     =  1.00
     AMIX_MAG =   1.60;   BMIX_MAG =  1.00
     AMIN     =   0.10
     WC   =   100.;   INIMIX=   1;  MIXPRE=   1;  MAXMIX= -45

 Intra band minimization:
   WEIMIN = 0.0000     energy-eigenvalue tresh-hold
   EBREAK =  0.17E-05  absolut break condition
   DEPER  =   0.30     relativ break condition  

   TIME   =   0.40     timestep for ELM

  volume/ion in A,a.u.               =      11.56        78.01
  Fermi-wavevector in a.u.,A,eV,Ry     =   1.423496  2.690017 27.570029  2.026340
  Thomas-Fermi vector in A             =   2.544087
 
 Write flags
   LWAVE        =      F    write WAVECAR
   LDOWNSAMPLE  =      F    k-point downsampling of WAVECAR
   LCHARG       =      T    write CHGCAR
   LVTOT        =      F    write LOCPOT, total local potential
   LVHAR        =      F    write LOCPOT, Hartree potential only
   LELF         =      F    write electronic localiz. function (ELF)
   LORBIT       =     11    0 simple, 1 ext, 2 COOP (PROOUT), +10 PAW based schemes


 Dipole corrections
   LMONO  =      F    monopole corrections only (constant potential shift)
   LDIPOL =      F    correct potential (dipole corrections)
   IDIPOL =      0    1-x, 2-y, 3-z, 4-all directions 
   EPSILON=  1.0000000 bulk dielectric constant

 LDA+U is selected, type is set to LDAUTYPE =  2
   angular momentum for each species LDAUL =     0    2    2    0
   U (eV)           for each species LDAUU =   0.0  3.9  6.2  0.0
   J (eV)           for each species LDAUJ =   0.0  0.0  0.0  0.0
 Exchange correlation treatment:
   GGA     =    --    GGA type
   LEXCH   =     8    internal setting for exchange type
   VOSKOWN=      0    Vosko Wilk Nusair interpolation
   LHFCALC =     F    Hartree Fock is set to
   LHFONE  =     F    Hartree Fock one center treatment
   AEXX    =    0.0000 exact exchange contribution

 Linear response parameters
   LEPSILON=     F    determine dielectric tensor
   LRPA    =     F    only Hartree local field effects (RPA)
   LNABLA  =     F    use nabla operator in PAW spheres
   LVEL    =     F    velocity operator in full k-point grid
   LINTERFAST=   F  fast interpolation
   KINTER  =     0    interpolate to denser k-point grid
   CSHIFT  =0.1000    complex shift for real part using Kramers Kronig
   OMEGAMAX=  -1.0    maximum frequency
   DEG_THRESHOLD= 0.2000000E-02 threshold for treating states as degnerate
   RTIME   =   -0.100 relaxation time in fs
  (WPLASMAI=    0.000 imaginary part of plasma frequency in eV, 0.658/RTIME)
   DFIELD  = 0.0000000 0.0000000 0.0000000 field for delta impulse in time
 
 Orbital magnetization related:
   ORBITALMAG=     F  switch on orbital magnetization
   LCHIMAG   =     F  perturbation theory with respect to B field
   DQ        =  0.001000  dq finite difference perturbation B field
   LLRAUG    =     F  two centre corrections for induced B field



--------------------------------------------------------------------------------------------------------


 Static calculation
 charge density and potential will be updated during run
 spin polarized calculation
 RMM-DIIS sequential band-by-band and
  variant of blocked Davidson during initial phase
 perform sub-space diagonalisation
    before iterative eigenvector-optimisation
 modified Broyden-mixing scheme, WC =      100.0
 initial mixing is a Kerker type mixing with AMIX =  0.4000 and BMIX =      1.0000
 Hartree-type preconditioning will be used
 using additional bands           32
 real space projection scheme for non local part
 use partial core corrections
 calculate Harris-corrections to forces 
   (improved forces if not selfconsistent)
 use gradient corrections 
 use of overlap-Matrix (Vanderbilt PP)
 Fermi weights with tetrahedron method with Bloechl corrections


--------------------------------------------------------------------------------------------------------


  energy-cutoff  :      520.00
  volume of cell :      346.81
      direct lattice vectors                 reciprocal lattice vectors
     3.864308968  3.864308968  0.000000000     0.129389240  0.129389240  0.000000000
     3.864308968 -3.864308968  0.000000000     0.129389240 -0.129389240  0.000000000
     0.000000000  0.000000000-11.612271777     0.000000000  0.000000000 -0.086115794

  length of vectors
     5.464958152  5.464958152 11.612271777     0.182984018  0.182984018  0.086115794


 
 k-points in units of 2pi/SCALE and weight: Automatic mesh                          
   0.00000000  0.00000000  0.00000000       0.031
   0.03234731  0.03234731  0.00000000       0.125
   0.06469462  0.06469462  0.00000000       0.062
   0.06469462  0.00000000  0.00000000       0.125
   0.09704193  0.03234731  0.00000000       0.125
   0.12938924  0.00000000  0.00000000       0.031
   0.00000000  0.00000000 -0.04305790       0.031
   0.03234731  0.03234731 -0.04305790       0.125
   0.06469462  0.06469462 -0.04305790       0.062
   0.06469462  0.00000000 -0.04305790       0.125
   0.09704193  0.03234731 -0.04305790       0.125
   0.12938924  0.00000000 -0.04305790       0.031
 
 k-points in reciprocal lattice and weights: Automatic mesh                          
   0.00000000  0.00000000  0.00000000       0.031
   0.25000000  0.00000000  0.00000000       0.125
   0.50000000  0.00000000  0.00000000       0.062
   0.25000000  0.25000000  0.00000000       0.125
   0.50000000  0.25000000  0.00000000       0.125
   0.50000000  0.50000000  0.00000000       0.031
   0.00000000  0.00000000  0.50000000       0.031
   0.25000000  0.00000000  0.50000000       0.125
   0.50000000  0.00000000  0.50000000       0.062
   0.25000000  0.25000000  0.50000000       0.125
   0.50000000  0.25000000  0.50000000       0.125
   0.50000000  0.50000000  0.50000000       0.031
 
 position of ions in fractional coordinates (direct lattice) 
   0.50000000  0.50000000  0.33333330
   0.00000000  0.00000000  0.66902961
   0.50000000  0.50000000  0.99763709
   0.00000000  0.00000000  0.33333330
   0.50000000  0.50000000  0.66902961
   0.00000000  0.00000000  0.99763709
   0.50000000  0.00000000  0.16673203
   0.00000000  0.50000000  0.49993467
   0.50000000  0.00000000  0.50036721
   0.00000000  0.50000000  0.83384068
   0.00000000  0.50000000  0.16629949
   0.50000000  0.00000000  0.83282592
   0.00000000  0.50000000  0.66484562
   0.50000000  0.00000000  0.33079570
   0.00000000  0.50000000  0.99901109
   0.50000000  0.00000000  0.66765561
   0.00000000  0.50000000  0.33587090
   0.50000000  0.00000000  0.00182108
   0.75470029  0.74529971  0.49941840
   0.25470029  0.24529971  0.16724830
   0.75000000  0.75000000  0.83333330
   0.24529971  0.25470029  0.49941840
   0.74529971  0.75470029  0.16724830
   0.25000000  0.25000000  0.83333330
   0.75470029  0.25470029  0.49941840
   0.25470029  0.75470029  0.16724830
   0.75000000  0.25000000  0.83333330
   0.24529971  0.74529971  0.49941840
   0.74529971  0.24529971  0.16724830
   0.25000000  0.75000000  0.83333330
 
 position of ions in cartesian coordinates  (Angst):
   3.86430897  0.00000000 -3.87075687
   0.00000000  0.00000000 -7.76895370
   3.86430897  0.00000000-11.58483299
   0.00000000  0.00000000 -3.87075687
   3.86430897  0.00000000 -7.76895370
   0.00000000  0.00000000-11.58483299
   1.93215448  1.93215448 -1.93613765
   1.93215448 -1.93215448 -5.80537726
   1.93215448  1.93215448 -5.81040004
   1.93215448 -1.93215448 -9.68278454
   1.93215448 -1.93215448 -1.93111486
   1.93215448  1.93215448 -9.67100098
   1.93215448 -1.93215448 -7.72036800
   1.93215448  1.93215448 -3.84128962
   1.93215448 -1.93215448-11.60078828
   1.93215448  1.93215448 -7.75299840
   1.93215448 -1.93215448 -3.90022412
   1.93215448  1.93215448 -0.02114690
   5.79646345  0.03632678 -5.79938222
   1.93215448  0.03632678 -1.94213269
   5.79646345  0.00000000 -9.67689276
   1.93215448 -0.03632678 -5.79938222
   5.79646345 -0.03632678 -1.94213269
   1.93215448  0.00000000 -9.67689276
   3.90063575  1.93215448 -5.79938222
   3.90063575 -1.93215448 -1.94213269
   3.86430897  1.93215448 -9.67689276
   3.82798219 -1.93215448 -5.79938222
   3.82798219  1.93215448 -1.94213269
   3.86430897 -1.93215448 -9.67689276
 


--------------------------------------------------------------------------------------------------------


 k-point  1 :   0.0000 0.0000 0.0000  plane waves:    9359
 k-point  2 :   0.2500 0.0000 0.0000  plane waves:    9312
 k-point  3 :   0.5000 0.0000 0.0000  plane waves:    9360
 k-point  4 :   0.2500 0.2500 0.0000  plane waves:    9328
 k-point  5 :   0.5000 0.2500 0.0000  plane waves:    9360
 k-point  6 :   0.5000 0.5000 0.0000  plane waves:    9324
 k-point  7 :   0.0000 0.0000 0.5000  plane waves:    9348
 k-point  8 :   0.2500 0.0000 0.5000  plane waves:    9316
 k-point  9 :   0.5000 0.0000 0.5000  plane waves:    9316
 k-point 10 :   0.2500 0.2500 0.5000  plane waves:    9344
 k-point 11 :   0.5000 0.2500 0.5000  plane waves:    9352
 k-point 12 :   0.5000 0.5000 0.5000  plane waves:    9440

 maximum and minimum number of plane-waves per node :       956      908

 maximum number of plane-waves:      9440
 maximum index in each direction: 
   IXMAX=   10   IYMAX=   10   IZMAX=   21
   IXMIN=  -10   IYMIN=  -10   IZMIN=  -22


 real space projection operators:
  total allocation   :      20229.78 KBytes
  max/ min on nodes  :       2399.92       1820.59


 parallel 3D FFT for wavefunctions:
    minimum data exchange during FFTs selected (reduces bandwidth)
 parallel 3D FFT for charge:
    minimum data exchange during FFTs selected (reduces bandwidth)


 total amount of memory used by VASP MPI-rank0    77474. kBytes
=======================================================================

   base      :      30000. kBytes
   nonlr-proj:       7219. kBytes
   fftplans  :       3030. kBytes
   grid      :       8843. kBytes
   one-center:        294. kBytes
   wavefun   :      28088. kBytes
 
     INWAV:  cpu time    0.0000: real time    0.0000
 Broyden mixing: mesh for mixing (old mesh)
   NGX = 21   NGY = 21   NGZ = 43
  (NGX  = 84   NGY  = 84   NGZ  =180)
  gives a total of  18963 points

 initial charge density was supplied:
 charge density of overlapping atoms calculated
 number of electron     228.0000000 magnetization      20.0000000
 keeping initial charge density in first step


--------------------------------------------------------------------------------------------------------


 Maximum index for non-local projection operator         1176
 Maximum index for augmentation-charges         1930 (set IRDMAX)


--------------------------------------------------------------------------------------------------------


 First call to EWALD:  gamma=   0.252
 Maximum number of real-space cells 3x 3x 2
 Maximum number of reciprocal cells 2x 2x 4

    FEWALD:  cpu time    0.0017: real time    0.0017


--------------------------------------- Iteration      1(   1)  ---------------------------------------


    POTLOK:  cpu time    0.0816: real time    0.0834
    SETDIJ:  cpu time    0.0171: real time    0.0172
atom =   1  type =  1  l = 0
 
 onsite density matrix
 
spin component  1
 
  1.0989
 
spin component  2
 
  1.0989
 
 occupancies and eigenvectors
 
  o =  1.0989  v =  1.0000  0.0000      0.0000  0.0000
  o =  1.0989  v =  0.0000  1.0000      0.0000  0.0000
atom =   2  type =  1  l = 0
 
 onsite density matrix
 
spin component  1
 
  1.0989
 
spin component  2
 
  1.0989
 
 occupancies and eigenvectors
 
  o =  1.0989  v =  1.0000  0.0000      0.0000  0.0000
  o =  1.0989  v =  0.0000  1.0000      0.0000  0.0000
atom =   3  type =  1  l = 0
 
 onsite density matrix
 
spin component  1
 
  1.0989
 
spin component  2
 
  1.0989
 
 occupancies and eigenvectors
 
  o =  1.0989  v =  1.0000  0.0000      0.0000  0.0000
  o =  1.0989  v =  0.0000  1.0000      0.0000  0.0000
atom =   4  type =  1  l = 0
 
 onsite density matrix
 
spin component  1
 
  1.0989
 
spin component  2
 
  1.0989
 
 occupancies and eigenvectors
 
  o =  1.0989  v =  1.0000  0.0000      0.0000  0.0000
  o =  1.0989  v =  0.0000  1.0000      0.0000  0.0000
atom =   5  type =  1  l = 0
 
 onsite density matrix
 
spin component  1
 
  1.0989
 
spin component  2
 
  1.0989
 
 occupancies and eigenvectors
 
  o =  1.0989  v =  1.0000  0.0000      0.0000  0.0000
  o =  1.0989  v =  0.0000  1.0000      0.0000  0.0000
atom =   6  type =  1  l = 0
 
 onsite density matrix
 
spin component  1
 
  1.0989
 
spin component  2
 
  1.0989
 
 occupancies and eigenvectors
 
  o =  1.0989  v =  1.0000  0.0000      0.0000  0.0000
  o =  1.0989  v =  0.0000  1.0000      0.0000  0.0000
atom =   7  type =  2  l = 2
 
 onsite density matrix
 
spin component  1
 
  0.8272  0.0000  0.0000  0.0000  0.0000
  0.0000  0.8272  0.0000  0.0000  0.0000
  0.0000  0.0000  0.8272  0.0000  0.0000
  0.0000  0.0000  0.0000  0.8272  0.0000
  0.0000  0.0000  0.0000  0.0000  0.8272
 
spin component  2
 
  0.2256  0.0000  0.0000  0.0000  0.0000
  0.0000  0.2256  0.0000  0.0000  0.0000
  0.0000  0.0000  0.2256  0.0000  0.0000
  0.0000  0.0000  0.0000  0.2256  0.0000
  0.0000  0.0000  0.0000  0.0000  0.2256
 
 occupancies and eigenvectors
 
  o =  0.2256  v =  0.0000  0.0000  0.0000  0.0000  0.0000  0.0000  0.0000  1.0000  0.0000  0.0000      0.0000  0.0000  0.0000  0.0000  0.0000  0.0000  0.0000  0.0000  0.0000  0.0000
  o =  0.2256  v =  0.0000  0.0000  0.0000  0.0000  0.0000  1.0000  0.0000  0.0000  0.0000  0.0000      0.0000  0.0000  0.0000  0.0000  0.0000  0.0000  0.0000  0.0000  0.0000  0.0000
  o =  0.2256  v =  0.0000  0.0000  0.0000  0.0000  0.0000  0.0000  1.0000  0.0000  0.0000  0.0000      0.0000  0.0000  0.0000  0.0000  0.0000  0.0000  0.0000  0.0000  0.0000  0.0000
  o =  0.2256  v =  0.0000  0.0000  0.0000  0.0000  0.0000  0.0000  0.0000  0.0000  1.0000  0.0000      0.0000  0.0000  0.0000  0.0000  0.0000  0.0000  0.0000  0.0000  0.0000  0.0000
  o =  0.2256  v =  0.0000  0.0000  0.0000  0.0000  0.0000  0.0000  0.0000  0.0000  0.0000  1.0000      0.0000  0.0000  0.0000  0.0000  0.0000  0.0000  0.0000  0.0000  0.0000  0.0000
  o =  0.8272  v =  0.0000  1.0000  0.0000  0.0000  0.0000  0.0000  0.0000  0.0000  0.0000  0.0000      0.0000  0.0000  0.0000  0.0000  0.0000  0.0000  0.0000  0.0000  0.0000  0.0000
  o =  0.8272  v =  0.0000  0.0000  1.0000  0.0000  0.0000  0.0000  0.0000  0.0000  0.0000  0.0000      0.0000  0.0000  0.0000  0.0000  0.0000  0.0000  0.0000  0.0000  0.0000  0.0000
  o =  0.8272  v =  1.0000  0.0000  0.0000  0.0000  0.0000  0.0000  0.0000  0.0000  0.0000  0.0000      0.0000  0.0000  0.0000  0.0000  0.0000  0.0000  0.0000  0.0000  0.0000  0.0000
  o =  0.8272  v =  0.0000  0.0000  0.0000  1.0000  0.0000  0.0000  0.0000  0.0000  0.0000  0.0000      0.0000  0.0000  0.0000  0.0000  0.0000  0.0000  0.0000  0.0000  0.0000  0.0000
  o =  0.8272  v =  0.0000  0.0000  0.0000  0.0000  1.0000  0.0000  0.0000  0.0000  0.0000  0.0000      0.0000  0.0000  0.0000  0.0000  0.0000  0.0000  0.0000  0.0000  0.0000  0.0000
atom =   8  type =  2  l = 2
 
 onsite density matrix
 
spin component  1
 
  0.8272  0.0000  0.0000  0.0000  0.0000
  0.0000  0.8272  0.0000  0.0000  0.0000
  0.0000  0.0000  0.8272  0.0000  0.0000
  0.0000  0.0000  0.0000  0.8272  0.0000
  0.0000  0.0000  0.0000  0.0000  0.8272
 
spin component  2
 
  0.2256  0.0000  0.0000  0.0000  0.0000
  0.0000  0.2256  0.0000  0.0000  0.0000
  0.0000  0.0000  0.2256  0.0000  0.0000
  0.0000  0.0000  0.0000  0.2256  0.0000
  0.0000  0.0000  0.0000  0.0000  0.2256
 
 occupancies and eigenvectors
 
  o =  0.2256  v =  0.0000  0.0000  0.0000  0.0000  0.0000  0.0000  0.0000  1.0000  0.0000  0.0000      0.0000  0.0000  0.0000  0.0000  0.0000  0.0000  0.0000  0.0000  0.0000  0.0000
  o =  0.2256  v =  0.0000  0.0000  0.0000  0.0000  0.0000  1.0000  0.0000  0.0000  0.0000  0.0000      0.0000  0.0000  0.0000  0.0000  0.0000  0.0000  0.0000  0.0000  0.0000  0.0000
  o =  0.2256  v =  0.0000  0.0000  0.0000  0.0000  0.0000  0.0000  1.0000  0.0000  0.0000  0.0000      0.0000  0.0000  0.0000  0.0000  0.0000  0.0000  0.0000  0.0000  0.0000  0.0000
  o =  0.2256  v =  0.0000  0.0000  0.0000  0.0000  0.0000  0.0000  0.0000  0.0000  1.0000  0.0000      0.0000  0.0000  0.0000  0.0000  0.0000  0.0000  0.0000  0.0000  0.0000  0.0000
  o =  0.2256  v =  0.0000  0.0000  0.0000  0.0000  0.0000  0.0000  0.0000  0.0000  0.0000  1.0000      0.0000  0.0000  0.0000  0.0000  0.0000  0.0000  0.0000  0.0000  0.0000  0.0000
  o =  0.8272  v =  0.0000  1.0000  0.0000  0.0000  0.0000  0.0000  0.0000  0.0000  0.0000  0.0000      0.0000  0.0000  0.0000  0.0000  0.0000  0.0000  0.0000  0.0000  0.0000  0.0000
  o =  0.8272  v =  0.0000  0.0000  1.0000  0.0000  0.0000  0.0000  0.0000  0.0000  0.0000  0.0000      0.0000  0.0000  0.0000  0.0000  0.0000  0.0000  0.0000  0.0000  0.0000  0.0000
  o =  0.8272  v =  1.0000  0.0000  0.0000  0.0000  0.0000  0.0000  0.0000  0.0000  0.0000  0.0000      0.0000  0.0000  0.0000  0.0000  0.0000  0.0000  0.0000  0.0000  0.0000  0.0000
  o =  0.8272  v =  0.0000  0.0000  0.0000  1.0000  0.0000  0.0000  0.0000  0.0000  0.0000  0.0000      0.0000  0.0000  0.0000  0.0000  0.0000  0.0000  0.0000  0.0000  0.0000  0.0000
  o =  0.8272  v =  0.0000  0.0000  0.0000  0.0000  1.0000  0.0000  0.0000  0.0000  0.0000  0.0000      0.0000  0.0000  0.0000  0.0000  0.0000  0.0000  0.0000  0.0000  0.0000  0.0000
atom =   9  type =  3  l = 2
 
 onsite density matrix
 
spin component  1
 
  1.1008  0.0000  0.0000  0.0000  0.0000
  0.0000  1.1008  0.0000  0.0000  0.0000
  0.0000  0.0000  1.1008  0.0000  0.0000
  0.0000  0.0000  0.0000  1.1008  0.0000
  0.0000  0.0000  0.0000  0.0000  1.1008
 
spin component  2
 
  0.5927  0.0000  0.0000  0.0000  0.0000
  0.0000  0.5927  0.0000  0.0000  0.0000
  0.0000  0.0000  0.5927  0.0000  0.0000
  0.0000  0.0000  0.0000  0.5927  0.0000
  0.0000  0.0000  0.0000  0.0000  0.5927
 
 occupancies and eigenvectors
 
  o =  0.5927  v =  0.0000  0.0000  0.0000  0.0000  0.0000  1.0000  0.0000  0.0000  0.0000  0.0000      0.0000  0.0000  0.0000  0.0000  0.0000  0.0000  0.0000  0.0000  0.0000  0.0000
  o =  0.5927  v =  0.0000  0.0000  0.0000  0.0000  0.0000  0.0000  1.0000  0.0000  0.0000  0.0000      0.0000  0.0000  0.0000  0.0000  0.0000  0.0000  0.0000  0.0000  0.0000  0.0000
  o =  0.5927  v =  0.0000  0.0000  0.0000  0.0000  0.0000  0.0000  0.0000  1.0000  0.0000  0.0000      0.0000  0.0000  0.0000  0.0000  0.0000  0.0000  0.0000  0.0000  0.0000  0.0000
  o =  0.5927  v =  0.0000  0.0000  0.0000  0.0000  0.0000  0.0000  0.0000  0.0000  1.0000  0.0000      0.0000  0.0000  0.0000  0.0000  0.0000  0.0000  0.0000  0.0000  0.0000  0.0000
  o =  0.5927  v =  0.0000  0.0000  0.0000  0.0000  0.0000  0.0000  0.0000  0.0000  0.0000  1.0000      0.0000  0.0000  0.0000  0.0000  0.0000  0.0000  0.0000  0.0000  0.0000  0.0000
  o =  1.1008  v =  1.0000  0.0000  0.0000  0.0000  0.0000  0.0000  0.0000  0.0000  0.0000  0.0000      0.0000  0.0000  0.0000  0.0000  0.0000  0.0000  0.0000  0.0000  0.0000  0.0000
  o =  1.1008  v =  0.0000  1.0000  0.0000  0.0000  0.0000  0.0000  0.0000  0.0000  0.0000  0.0000      0.0000  0.0000  0.0000  0.0000  0.0000  0.0000  0.0000  0.0000  0.0000  0.0000
  o =  1.1008  v =  0.0000  0.0000  1.0000  0.0000  0.0000  0.0000  0.0000  0.0000  0.0000  0.0000      0.0000  0.0000  0.0000  0.0000  0.0000  0.0000  0.0000  0.0000  0.0000  0.0000
  o =  1.1008  v =  0.0000  0.0000  0.0000  1.0000  0.0000  0.0000  0.0000  0.0000  0.0000  0.0000      0.0000  0.0000  0.0000  0.0000  0.0000  0.0000  0.0000  0.0000  0.0000  0.0000
  o =  1.1008  v =  0.0000  0.0000  0.0000  0.0000  1.0000  0.0000  0.0000  0.0000  0.0000  0.0000      0.0000  0.0000  0.0000  0.0000  0.0000  0.0000  0.0000  0.0000  0.0000  0.0000
atom =  10  type =  3  l = 2
 
 onsite density matrix
 
spin component  1
 
  1.1008  0.0000  0.0000  0.0000  0.0000
  0.0000  1.1008  0.0000  0.0000  0.0000
  0.0000  0.0000  1.1008  0.0000  0.0000
  0.0000  0.0000  0.0000  1.1008  0.0000
  0.0000  0.0000  0.0000  0.0000  1.1008
 
spin component  2
 
  0.5927  0.0000  0.0000  0.0000  0.0000
  0.0000  0.5927  0.0000  0.0000  0.0000
  0.0000  0.0000  0.5927  0.0000  0.0000
  0.0000  0.0000  0.0000  0.5927  0.0000
  0.0000  0.0000  0.0000  0.0000  0.5927
 
 occupancies and eigenvectors
 
  o =  0.5927  v =  0.0000  0.0000  0.0000  0.0000  0.0000  1.0000  0.0000  0.0000  0.0000  0.0000      0.0000  0.0000  0.0000  0.0000  0.0000  0.0000  0.0000  0.0000  0.0000  0.0000
  o =  0.5927  v =  0.0000  0.0000  0.0000  0.0000  0.0000  0.0000  1.0000  0.0000  0.0000  0.0000      0.0000  0.0000  0.0000  0.0000  0.0000  0.0000  0.0000  0.0000  0.0000  0.0000
  o =  0.5927  v =  0.0000  0.0000  0.0000  0.0000  0.0000  0.0000  0.0000  1.0000  0.0000  0.0000      0.0000  0.0000  0.0000  0.0000  0.0000  0.0000  0.0000  0.0000  0.0000  0.0000
  o =  0.5927  v =  0.0000  0.0000  0.0000  0.0000  0.0000  0.0000  0.0000  0.0000  1.0000  0.0000      0.0000  0.0000  0.0000  0.0000  0.0000  0.0000  0.0000  0.0000  0.0000  0.0000
  o =  0.5927  v =  0.0000  0.0000  0.0000  0.0000  0.0000  0.0000  0.0000  0.0000  0.0000  1.0000      0.0000  0.0000  0.0000  0.0000  0.0000  0.0000  0.0000  0.0000  0.0000  0.0000
  o =  1.1008  v =  1.0000  0.0000  0.0000  0.0000  0.0000  0.0000  0.0000  0.0000  0.0000  0.0000      0.0000  0.0000  0.0000  0.0000  0.0000  0.0000  0.0000  0.0000  0.0000  0.0000
  o =  1.1008  v =  0.0000  1.0000  0.0000  0.0000  0.0000  0.0000  0.0000  0.0000  0.0000  0.0000      0.0000  0.0000  0.0000  0.0000  0.0000  0.0000  0.0000  0.0000  0.0000  0.0000
  o =  1.1008  v =  0.0000  0.0000  1.0000  0.0000  0.0000  0.0000  0.0000  0.0000  0.0000  0.0000      0.0000  0.0000  0.0000  0.0000  0.0000  0.0000  0.0000  0.0000  0.0000  0.0000
  o =  1.1008  v =  0.0000  0.0000  0.0000  1.0000  0.0000  0.0000  0.0000  0.0000  0.0000  0.0000      0.0000  0.0000  0.0000  0.0000  0.0000  0.0000  0.0000  0.0000  0.0000  0.0000
  o =  1.1008  v =  0.0000  0.0000  0.0000  0.0000  1.0000  0.0000  0.0000  0.0000  0.0000  0.0000      0.0000  0.0000  0.0000  0.0000  0.0000  0.0000  0.0000  0.0000  0.0000  0.0000
atom =  11  type =  3  l = 2
 
 onsite density matrix
 
spin component  1
 
  1.1008  0.0000  0.0000  0.0000  0.0000
  0.0000  1.1008  0.0000  0.0000  0.0000
  0.0000  0.0000  1.1008  0.0000  0.0000
  0.0000  0.0000  0.0000  1.1008  0.0000
  0.0000  0.0000  0.0000  0.0000  1.1008
 
spin component  2
 
  0.5927  0.0000  0.0000  0.0000  0.0000
  0.0000  0.5927  0.0000  0.0000  0.0000
  0.0000  0.0000  0.5927  0.0000  0.0000
  0.0000  0.0000  0.0000  0.5927  0.0000
  0.0000  0.0000  0.0000  0.0000  0.5927
 
 occupancies and eigenvectors
 
  o =  0.5927  v =  0.0000  0.0000  0.0000  0.0000  0.0000  1.0000  0.0000  0.0000  0.0000  0.0000      0.0000  0.0000  0.0000  0.0000  0.0000  0.0000  0.0000  0.0000  0.0000  0.0000
  o =  0.5927  v =  0.0000  0.0000  0.0000  0.0000  0.0000  0.0000  1.0000  0.0000  0.0000  0.0000      0.0000  0.0000  0.0000  0.0000  0.0000  0.0000  0.0000  0.0000  0.0000  0.0000
  o =  0.5927  v =  0.0000  0.0000  0.0000  0.0000  0.0000  0.0000  0.0000  1.0000  0.0000  0.0000      0.0000  0.0000  0.0000  0.0000  0.0000  0.0000  0.0000  0.0000  0.0000  0.0000
  o =  0.5927  v =  0.0000  0.0000  0.0000  0.0000  0.0000  0.0000  0.0000  0.0000  1.0000  0.0000      0.0000  0.0000  0.0000  0.0000  0.0000  0.0000  0.0000  0.0000  0.0000  0.0000
  o =  0.5927  v =  0.0000  0.0000  0.0000  0.0000  0.0000  0.0000  0.0000  0.0000  0.0000  1.0000      0.0000  0.0000  0.0000  0.0000  0.0000  0.0000  0.0000  0.0000  0.0000  0.0000
  o =  1.1008  v =  1.0000  0.0000  0.0000  0.0000  0.0000  0.0000  0.0000  0.0000  0.0000  0.0000      0.0000  0.0000  0.0000  0.0000  0.0000  0.0000  0.0000  0.0000  0.0000  0.0000
  o =  1.1008  v =  0.0000  1.0000  0.0000  0.0000  0.0000  0.0000  0.0000  0.0000  0.0000  0.0000      0.0000  0.0000  0.0000  0.0000  0.0000  0.0000  0.0000  0.0000  0.0000  0.0000
  o =  1.1008  v =  0.0000  0.0000  1.0000  0.0000  0.0000  0.0000  0.0000  0.0000  0.0000  0.0000      0.0000  0.0000  0.0000  0.0000  0.0000  0.0000  0.0000  0.0000  0.0000  0.0000
  o =  1.1008  v =  0.0000  0.0000  0.0000  1.0000  0.0000  0.0000  0.0000  0.0000  0.0000  0.0000      0.0000  0.0000  0.0000  0.0000  0.0000  0.0000  0.0000  0.0000  0.0000  0.0000
  o =  1.1008  v =  0.0000  0.0000  0.0000  0.0000  1.0000  0.0000  0.0000  0.0000  0.0000  0.0000      0.0000  0.0000  0.0000  0.0000  0.0000  0.0000  0.0000  0.0000  0.0000  0.0000
atom =  12  type =  3  l = 2
 
 onsite density matrix
 
spin component  1
 
  1.1008  0.0000  0.0000  0.0000  0.0000
  0.0000  1.1008  0.0000  0.0000  0.0000
  0.0000  0.0000  1.1008  0.0000  0.0000
  0.0000  0.0000  0.0000  1.1008  0.0000
  0.0000  0.0000  0.0000  0.0000  1.1008
 
spin component  2
 
  0.5927  0.0000  0.0000  0.0000  0.0000
  0.0000  0.5927  0.0000  0.0000  0.0000
  0.0000  0.0000  0.5927  0.0000  0.0000
  0.0000  0.0000  0.0000  0.5927  0.0000
  0.0000  0.0000  0.0000  0.0000  0.5927
 
 occupancies and eigenvectors
 
  o =  0.5927  v =  0.0000  0.0000  0.0000  0.0000  0.0000  1.0000  0.0000  0.0000  0.0000  0.0000      0.0000  0.0000  0.0000  0.0000  0.0000  0.0000  0.0000  0.0000  0.0000  0.0000
  o =  0.5927  v =  0.0000  0.0000  0.0000  0.0000  0.0000  0.0000  1.0000  0.0000  0.0000  0.0000      0.0000  0.0000  0.0000  0.0000  0.0000  0.0000  0.0000  0.0000  0.0000  0.0000
  o =  0.5927  v =  0.0000  0.0000  0.0000  0.0000  0.0000  0.0000  0.0000  1.0000  0.0000  0.0000      0.0000  0.0000  0.0000  0.0000  0.0000  0.0000  0.0000  0.0000  0.0000  0.0000
  o =  0.5927  v =  0.0000  0.0000  0.0000  0.0000  0.0000  0.0000  0.0000  0.0000  1.0000  0.0000      0.0000  0.0000  0.0000  0.0000  0.0000  0.0000  0.0000  0.0000  0.0000  0.0000
  o =  0.5927  v =  0.0000  0.0000  0.0000  0.0000  0.0000  0.0000  0.0000  0.0000  0.0000  1.0000      0.0000  0.0000  0.0000  0.0000  0.0000  0.0000  0.0000  0.0000  0.0000  0.0000
  o =  1.1008  v =  1.0000  0.0000  0.0000  0.0000  0.0000  0.0000  0.0000  0.0000  0.0000  0.0000      0.0000  0.0000  0.0000  0.0000  0.0000  0.0000  0.0000  0.0000  0.0000  0.0000
  o =  1.1008  v =  0.0000  1.0000  0.0000  0.0000  0.0000  0.0000  0.0000  0.0000  0.0000  0.0000      0.0000  0.0000  0.0000  0.0000  0.0000  0.0000  0.0000  0.0000  0.0000  0.0000
  o =  1.1008  v =  0.0000  0.0000  1.0000  0.0000  0.0000  0.0000  0.0000  0.0000  0.0000  0.0000      0.0000  0.0000  0.0000  0.0000  0.0000  0.0000  0.0000  0.0000  0.0000  0.0000
  o =  1.1008  v =  0.0000  0.0000  0.0000  1.0000  0.0000  0.0000  0.0000  0.0000  0.0000  0.0000      0.0000  0.0000  0.0000  0.0000  0.0000  0.0000  0.0000  0.0000  0.0000  0.0000
  o =  1.1008  v =  0.0000  0.0000  0.0000  0.0000  1.0000  0.0000  0.0000  0.0000  0.0000  0.0000      0.0000  0.0000  0.0000  0.0000  0.0000  0.0000  0.0000  0.0000  0.0000  0.0000
atom =  13  type =  4  l = 0
 
 onsite density matrix
 
spin component  1
 
  0.8190
 
spin component  2
 
  0.8190
 
 occupancies and eigenvectors
 
  o =  0.8190  v =  1.0000  0.0000      0.0000  0.0000
  o =  0.8190  v =  0.0000  1.0000      0.0000  0.0000
atom =  14  type =  4  l = 0
 
 onsite density matrix
 
spin component  1
 
  0.8190
 
spin component  2
 
  0.8190
 
 occupancies and eigenvectors
 
  o =  0.8190  v =  1.0000  0.0000      0.0000  0.0000
  o =  0.8190  v =  0.0000  1.0000      0.0000  0.0000
atom =  15  type =  4  l = 0
 
 onsite density matrix
 
spin component  1
 
  0.8190
 
spin component  2
 
  0.8190
 
 occupancies and eigenvectors
 
  o =  0.8190  v =  1.0000  0.0000      0.0000  0.0000
  o =  0.8190  v =  0.0000  1.0000      0.0000  0.0000
atom =  16  type =  4  l = 0
 
 onsite density matrix
 
spin component  1
 
  0.8190
 
spin component  2
 
  0.8190
 
 occupancies and eigenvectors
 
  o =  0.8190  v =  1.0000  0.0000      0.0000  0.0000
  o =  0.8190  v =  0.0000  1.0000      0.0000  0.0000
atom =  17  type =  4  l = 0
 
 onsite density matrix
 
spin component  1
 
  0.8190
 
spin component  2
 
  0.8190
 
 occupancies and eigenvectors
 
  o =  0.8190  v =  1.0000  0.0000      0.0000  0.0000
  o =  0.8190  v =  0.0000  1.0000      0.0000  0.0000
atom =  18  type =  4  l = 0
 
 onsite density matrix
 
spin component  1
 
  0.8190
 
spin component  2
 
  0.8190
 
 occupancies and eigenvectors
 
  o =  0.8190  v =  1.0000  0.0000      0.0000  0.0000
  o =  0.8190  v =  0.0000  1.0000      0.0000  0.0000
atom =  19  type =  4  l = 0
 
 onsite density matrix
 
spin component  1
 
  0.8190
 
spin component  2
 
  0.8190
 
 occupancies and eigenvectors
 
  o =  0.8190  v =  1.0000  0.0000      0.0000  0.0000
  o =  0.8190  v =  0.0000  1.0000      0.0000  0.0000
atom =  20  type =  4  l = 0
 
 onsite density matrix
 
spin component  1
 
  0.8190
 
spin component  2
 
  0.8190
 
 occupancies and eigenvectors
 
  o =  0.8190  v =  1.0000  0.0000      0.0000  0.0000
  o =  0.8190  v =  0.0000  1.0000      0.0000  0.0000
atom =  21  type =  4  l = 0
 
 onsite density matrix
 
spin component  1
 
  0.8190
 
spin component  2
 
  0.8190
 
 occupancies and eigenvectors
 
  o =  0.8190  v =  1.0000  0.0000      0.0000  0.0000
  o =  0.8190  v =  0.0000  1.0000      0.0000  0.0000
atom =  22  type =  4  l = 0
 
 onsite density matrix
 
spin component  1
 
  0.8190
 
spin component  2
 
  0.8190
 
 occupancies and eigenvectors
 
  o =  0.8190  v =  1.0000  0.0000      0.0000  0.0000
  o =  0.8190  v =  0.0000  1.0000      0.0000  0.0000
atom =  23  type =  4  l = 0
 
 onsite density matrix
 
spin component  1
 
  0.8190
 
spin component  2
 
  0.8190
 
 occupancies and eigenvectors
 
  o =  0.8190  v =  1.0000  0.0000      0.0000  0.0000
  o =  0.8190  v =  0.0000  1.0000      0.0000  0.0000
atom =  24  type =  4  l = 0
 
 onsite density matrix
 
spin component  1
 
  0.8190
 
spin component  2
 
  0.8190
 
 occupancies and eigenvectors
 
  o =  0.8190  v =  1.0000  0.0000      0.0000  0.0000
  o =  0.8190  v =  0.0000  1.0000      0.0000  0.0000
atom =  25  type =  4  l = 0
 
 onsite density matrix
 
spin component  1
 
  0.8190
 
spin component  2
 
  0.8190
 
 occupancies and eigenvectors
 
  o =  0.8190  v =  1.0000  0.0000      0.0000  0.0000
  o =  0.8190  v =  0.0000  1.0000      0.0000  0.0000
atom =  26  type =  4  l = 0
 
 onsite density matrix
 
spin component  1
 
  0.8190
 
spin component  2
 
  0.8190
 
 occupancies and eigenvectors
 
  o =  0.8190  v =  1.0000  0.0000      0.0000  0.0000
  o =  0.8190  v =  0.0000  1.0000      0.0000  0.0000
atom =  27  type =  4  l = 0
 
 onsite density matrix
 
spin component  1
 
  0.8190
 
spin component  2
 
  0.8190
 
 occupancies and eigenvectors
 
  o =  0.8190  v =  1.0000  0.0000      0.0000  0.0000
  o =  0.8190  v =  0.0000  1.0000      0.0000  0.0000
atom =  28  type =  4  l = 0
 
 onsite density matrix
 
spin component  1
 
  0.8190
 
spin component  2
 
  0.8190
 
 occupancies and eigenvectors
 
  o =  0.8190  v =  1.0000  0.0000      0.0000  0.0000
  o =  0.8190  v =  0.0000  1.0000      0.0000  0.0000
atom =  29  type =  4  l = 0
 
 onsite density matrix
 
spin component  1
 
  0.8190
 
spin component  2
 
  0.8190
 
 occupancies and eigenvectors
 
  o =  0.8190  v =  1.0000  0.0000      0.0000  0.0000
  o =  0.8190  v =  0.0000  1.0000      0.0000  0.0000
atom =  30  type =  4  l = 0
 
 onsite density matrix
 
spin component  1
 
  0.8190
 
spin component  2
 
  0.8190
 
 occupancies and eigenvectors
 
  o =  0.8190  v =  1.0000  0.0000      0.0000  0.0000
  o =  0.8190  v =  0.0000  1.0000      0.0000  0.0000
     EDDAV:  cpu time    4.3216: real time    4.3409
 BZINTS: Fermi energy: 32.800389;228.000000 electrons
         Band energy:3467.935651;  BLOECHL correction: -0.135453
       DOS:  cpu time    0.0222: real time    0.0229
    --------------------------------------------
      LOOP:  cpu time    4.4425: real time    4.4643

 eigenvalue-minimisations  :  7472
 total energy-change (2. order) : 0.3602806E+04  (-0.8011049E+04)
 number of electron     228.0000000 magnetization      20.0000000
 augmentation part      228.0000000 magnetization      20.0000000

 Free energy of the ion-electron system (eV)
  ---------------------------------------------------
  alpha Z        PSCENC =       990.69272425
  Ewald energy   TEWEN  =    -15968.62514732
  -Hartree energ DENC   =     -3652.90078051
  -exchange      EXHF   =         0.00000000
  -V(xc)+E(xc)   XCENC  =       797.62604383
  PAW double counting   =     14758.73374630   -14913.13971078
  entropy T*S    EENTRO =         0.00000000
  eigenvalues    EBANDS =      3467.93565142
  atomic energy  EATOM  =     18122.48301372
  Solvation  Ediel_sol  =         0.00000000
  ---------------------------------------------------
  free energy    TOTEN  =      3602.80554090 eV

  energy without entropy =     3602.80554090  energy(sigma->0) =     3602.80554090


--------------------------------------------------------------------------------------------------------




--------------------------------------- Iteration      1(   2)  ---------------------------------------


     EDDAV:  cpu time    4.4460: real time    4.4627
 BZINTS: Fermi energy: 16.723561;228.000000 electrons
         Band energy:1117.221243;  BLOECHL correction: -0.035809
       DOS:  cpu time    0.0233: real time    0.0233
    --------------------------------------------
      LOOP:  cpu time    4.4693: real time    4.4860

 eigenvalue-minimisations  :  7776
 total energy-change (2. order) :-0.2350714E+04  (-0.2125229E+04)
 number of electron     228.0000000 magnetization      20.0000000
 augmentation part      228.0000000 magnetization      20.0000000

 Free energy of the ion-electron system (eV)
  ---------------------------------------------------
  alpha Z        PSCENC =       990.69272425
  Ewald energy   TEWEN  =    -15968.62514732
  -Hartree energ DENC   =     -3652.90078051
  -exchange      EXHF   =         0.00000000
  -V(xc)+E(xc)   XCENC  =       797.62604383
  PAW double counting   =     14758.73374630   -14913.13971078
  entropy T*S    EENTRO =         0.00000000
  eigenvalues    EBANDS =      1117.22124339
  atomic energy  EATOM  =     18122.48301372
  Solvation  Ediel_sol  =         0.00000000
  ---------------------------------------------------
  free energy    TOTEN  =      1252.09113287 eV

  energy without entropy =     1252.09113287  energy(sigma->0) =     1252.09113287


--------------------------------------------------------------------------------------------------------




--------------------------------------- Iteration      1(   3)  ---------------------------------------


     EDDAV:  cpu time    4.4177: real time    4.4435
 BZINTS: Fermi energy: 12.448167;228.000000 electrons
         Band energy: 136.907234;  BLOECHL correction: -0.037497
       DOS:  cpu time    0.0219: real time    0.0220
    --------------------------------------------
      LOOP:  cpu time    4.4397: real time    4.4655

 eigenvalue-minimisations  :  7752
 total energy-change (2. order) :-0.9803140E+03  (-0.8784643E+03)
 number of electron     228.0000000 magnetization      20.0000000
 augmentation part      228.0000000 magnetization      20.0000000

 Free energy of the ion-electron system (eV)
  ---------------------------------------------------
  alpha Z        PSCENC =       990.69272425
  Ewald energy   TEWEN  =    -15968.62514732
  -Hartree energ DENC   =     -3652.90078051
  -exchange      EXHF   =         0.00000000
  -V(xc)+E(xc)   XCENC  =       797.62604383
  PAW double counting   =     14758.73374630   -14913.13971078
  entropy T*S    EENTRO =         0.00000000
  eigenvalues    EBANDS =       136.90723400
  atomic energy  EATOM  =     18122.48301372
  Solvation  Ediel_sol  =         0.00000000
  ---------------------------------------------------
  free energy    TOTEN  =       271.77712348 eV

  energy without entropy =      271.77712348  energy(sigma->0) =      271.77712348


--------------------------------------------------------------------------------------------------------




--------------------------------------- Iteration      1(   4)  ---------------------------------------


     EDDAV:  cpu time    5.9698: real time    5.9908
 BZINTS: Fermi energy: 11.787238;228.000000 electrons
         Band energy:-287.671784;  BLOECHL correction: -0.013164
       DOS:  cpu time    0.0237: real time    0.0237
    --------------------------------------------
      LOOP:  cpu time    5.9935: real time    6.0145

 eigenvalue-minimisations  : 11128
 total energy-change (2. order) :-0.4245790E+03  (-0.4030841E+03)
 number of electron     228.0000000 magnetization      20.0000000
 augmentation part      228.0000000 magnetization      20.0000000

 Free energy of the ion-electron system (eV)
  ---------------------------------------------------
  alpha Z        PSCENC =       990.69272425
  Ewald energy   TEWEN  =    -15968.62514732
  -Hartree energ DENC   =     -3652.90078051
  -exchange      EXHF   =         0.00000000
  -V(xc)+E(xc)   XCENC  =       797.62604383
  PAW double counting   =     14758.73374630   -14913.13971078
  entropy T*S    EENTRO =         0.00000000
  eigenvalues    EBANDS =      -287.67178366
  atomic energy  EATOM  =     18122.48301372
  Solvation  Ediel_sol  =         0.00000000
  ---------------------------------------------------
  free energy    TOTEN  =      -152.80189418 eV

  energy without entropy =     -152.80189418  energy(sigma->0) =     -152.80189418


--------------------------------------------------------------------------------------------------------




--------------------------------------- Iteration      1(   5)  ---------------------------------------


     EDDAV:  cpu time    6.7601: real time    6.7898
 BZINTS: Fermi energy: 11.277863;228.000000 electrons
         Band energy:-378.469587;  BLOECHL correction: -0.031090
       DOS:  cpu time    0.0229: real time    0.0230
    CHARGE:  cpu time    0.2011: real time    0.2019
    MIXING:  cpu time    0.0039: real time    0.0040
    --------------------------------------------
      LOOP:  cpu time    6.9881: real time    7.0187

 eigenvalue-minimisations  : 12980
 total energy-change (2. order) :-0.9079780E+02  (-0.8803878E+02)
 number of electron     228.0000087 magnetization      18.6672440
 augmentation part       31.0833454 magnetization      14.1919665

 Broyden mixing:
  rms(total) = 0.81846E+01    rms(broyden)= 0.81841E+01
  rms(prec ) = 0.89722E+01
  weight for this iteration     100.00

 Free energy of the ion-electron system (eV)
  ---------------------------------------------------
  alpha Z        PSCENC =       990.69272425
  Ewald energy   TEWEN  =    -15968.62514732
  -Hartree energ DENC   =     -3652.90078051
  -exchange      EXHF   =         0.00000000
  -V(xc)+E(xc)   XCENC  =       797.62604383
  PAW double counting   =     14758.73374630   -14913.13971078
  entropy T*S    EENTRO =         0.00000000
  eigenvalues    EBANDS =      -378.46958700
  atomic energy  EATOM  =     18122.48301372
  Solvation  Ediel_sol  =         0.00000000
  ---------------------------------------------------
  free energy    TOTEN  =      -243.59969752 eV

  energy without entropy =     -243.59969752  energy(sigma->0) =     -243.59969752


--------------------------------------------------------------------------------------------------------




--------------------------------------- Iteration      1(   6)  ---------------------------------------


    POTLOK:  cpu time    0.0778: real time    0.0788
    SETDIJ:  cpu time    0.0154: real time    0.0154
atom =   1  type =  1  l = 0
 
 onsite density matrix
 
spin component  1
 
  1.0565
 
spin component  2
 
  1.0563
 
 occupancies and eigenvectors
 
  o =  1.0563  v =  0.0000  1.0000      0.0000  0.0000
  o =  1.0565  v =  1.0000  0.0000      0.0000  0.0000
atom =   2  type =  1  l = 0
 
 onsite density matrix
 
spin component  1
 
  1.0569
 
spin component  2
 
  1.0566
 
 occupancies and eigenvectors
 
  o =  1.0566  v =  0.0000  1.0000      0.0000  0.0000
  o =  1.0569  v =  1.0000  0.0000      0.0000  0.0000
atom =   3  type =  1  l = 0
 
 onsite density matrix
 
spin component  1
 
  1.0569
 
spin component  2
 
  1.0566
 
 occupancies and eigenvectors
 
  o =  1.0566  v =  0.0000  1.0000      0.0000  0.0000
  o =  1.0569  v =  1.0000  0.0000      0.0000  0.0000
atom =   4  type =  1  l = 0
 
 onsite density matrix
 
spin component  1
 
  1.0565
 
spin component  2
 
  1.0563
 
 occupancies and eigenvectors
 
  o =  1.0563  v =  0.0000  1.0000      0.0000  0.0000
  o =  1.0565  v =  1.0000  0.0000      0.0000  0.0000
atom =   5  type =  1  l = 0
 
 onsite density matrix
 
spin component  1
 
  1.0569
 
spin component  2
 
  1.0566
 
 occupancies and eigenvectors
 
  o =  1.0566  v =  0.0000  1.0000      0.0000  0.0000
  o =  1.0569  v =  1.0000  0.0000      0.0000  0.0000
atom =   6  type =  1  l = 0
 
 onsite density matrix
 
spin component  1
 
  1.0569
 
spin component  2
 
  1.0566
 
 occupancies and eigenvectors
 
  o =  1.0566  v =  0.0000  1.0000      0.0000  0.0000
  o =  1.0569  v =  1.0000  0.0000      0.0000  0.0000
atom =   7  type =  2  l = 2
 
 onsite density matrix
 
spin component  1
 
  0.9550  0.0000 -0.0000  0.0000 -0.0000
  0.0000  0.9572  0.0000 -0.0000  0.0000
 -0.0000  0.0000  0.3421 -0.0000 -0.0000
  0.0000 -0.0000 -0.0000  0.9572 -0.0000
 -0.0000  0.0000 -0.0000 -0.0000  0.3408
 
spin component  2
 
  0.0386 -0.0000  0.0000  0.0000  0.0000
 -0.0000  0.0368 -0.0000  0.0000 -0.0000
  0.0000 -0.0000  0.4591  0.0000  0.0000
  0.0000  0.0000  0.0000  0.0368  0.0000
  0.0000 -0.0000  0.0000  0.0000  0.4634
 
 occupancies and eigenvectors
 
  o =  0.0368  v =  0.0000  0.0000  0.0000  0.0000  0.0000  0.0000  0.9986 -0.0000  0.0522 -0.0000      0.0000  0.0000  0.0000  0.0000  0.0000  0.0000  0.0000  0.0000  0.0000  0.0000
  o =  0.0368  v =  0.0000  0.0000  0.0000  0.0000  0.0000  0.0000 -0.0522  0.0000  0.9986 -0.0000      0.0000  0.0000  0.0000  0.0000  0.0000  0.0000  0.0000  0.0000  0.0000  0.0000
  o =  0.0386  v =  0.0000  0.0000  0.0000  0.0000  0.0000  1.0000  0.0000  0.0000  0.0000  0.0000      0.0000  0.0000  0.0000  0.0000  0.0000  0.0000  0.0000  0.0000  0.0000  0.0000
  o =  0.3408  v =  0.0000 -0.0000 -0.0000  0.0000 -1.0000  0.0000  0.0000  0.0000  0.0000  0.0000      0.0000  0.0000  0.0000  0.0000  0.0000  0.0000  0.0000  0.0000  0.0000  0.0000
  o =  0.3421  v =  0.0000  0.0000  1.0000  0.0000 -0.0000  0.0000  0.0000  0.0000  0.0000  0.0000      0.0000  0.0000  0.0000  0.0000  0.0000  0.0000  0.0000  0.0000  0.0000  0.0000
  o =  0.4591  v =  0.0000  0.0000  0.0000  0.0000  0.0000  0.0000 -0.0000 -1.0000  0.0000  0.0000      0.0000  0.0000  0.0000  0.0000  0.0000  0.0000  0.0000  0.0000  0.0000  0.0000
  o =  0.4634  v =  0.0000  0.0000  0.0000  0.0000  0.0000  0.0000  0.0000  0.0000  0.0000  1.0000      0.0000  0.0000  0.0000  0.0000  0.0000  0.0000  0.0000  0.0000  0.0000  0.0000
[...]
 -0.000  -0.000   0.000  -0.000   0.000   0.000  -0.001   0.000   0.000  -0.000  -0.000  -0.000  -0.000  -0.000   0.000  -0.000
  0.000   0.000  -0.000   0.000   0.000   0.000  -0.000   0.000   0.000  -0.001   0.000   0.000  -0.000   0.000   0.000   0.000
  0.000  -0.000   0.000  -0.000  -0.000  -0.000   0.000   0.000  -0.000   0.000   0.000   0.000   0.000   0.000   0.000  -0.000
  0.000  -0.000   0.000   0.000  -0.000   0.000  -0.000  -0.001  -0.000   0.001   0.000   0.000   0.000   0.000  -0.000   0.000
  0.000  -0.000   0.000  -0.000   0.000  -0.001   0.000   0.000   0.000   0.000   0.000   0.001   0.000  -0.000   0.000   0.000
 -0.000   0.014  -0.000  -0.000  -0.000   0.000  -0.000  -0.000  -0.000  -0.000   0.001   0.000  -0.000   0.000   0.000  -0.000
 -0.000   0.000   0.000   0.000   0.000  -0.001   0.000  -0.000   0.000  -0.000   0.000   0.000   0.000  -0.000  -0.000   0.000
  0.000  -0.000   0.000  -0.001   0.000  -0.000   0.001  -0.000   0.000   0.000   0.000   0.000   0.000   0.000   0.000   0.000
 -0.000  -0.000  -0.000  -0.000   0.000  -0.000   0.000  -0.001  -0.000   0.000   0.000   0.000  -0.000   0.000  -0.000  -0.000
 -0.000  -0.000   0.000   0.000   0.000   0.000   0.000  -0.000  -0.000   0.000   0.000   0.000  -0.000   0.000   0.000   0.000
  0.000   0.000  -0.000   0.000  -0.000  -0.000   0.000   0.001  -0.000  -0.001   0.000  -0.000   0.000   0.000   0.000  -0.000


------------------------ aborting loop because EDIFF is reached ----------------------------------------


 


 total charge     
 
# of ion       s       p       d       f       tot
--------------------------------------------------
    1        2.000   5.701   0.496   0.194   8.390
    2        2.000   5.700   0.493   0.190   8.383
    3        2.000   5.700   0.493   0.190   8.383
    4        2.000   5.701   0.496   0.194   8.390
    5        2.000   5.701   0.490   0.192   8.382
    6        2.000   5.700   0.490   0.192   8.382
    7        0.362   0.584   4.859   0.000   5.805
    8        0.362   0.585   4.858   0.000   5.805
    9        0.391   0.569   8.325   0.000   9.285
   10        0.425   0.637   8.313   0.000   9.375
   11        0.391   0.569   8.325   0.000   9.284
   12        0.425   0.638   8.310   0.000   9.373
   13        1.562   3.457   0.000   0.000   5.019
   14        1.561   3.459   0.000   0.000   5.021
   15        1.561   3.432   0.000   0.000   4.993
   16        1.561   3.435   0.000   0.000   4.996
   17        1.561   3.460   0.000   0.000   5.021
   18        1.562   3.457   0.000   0.000   5.019
   19        1.562   3.468   0.000   0.000   5.029
   20        1.562   3.467   0.000   0.000   5.029
   21        1.563   3.437   0.000   0.000   5.000
   22        1.562   3.468   0.000   0.000   5.029
   23        1.562   3.467   0.000   0.000   5.029
   24        1.563   3.439   0.000   0.000   5.002
   25        1.561   3.456   0.000   0.000   5.017
   26        1.561   3.456   0.000   0.000   5.017
   27        1.562   3.429   0.000   0.000   4.991
   28        1.561   3.456   0.000   0.000   5.017
   29        1.561   3.456   0.000   0.000   5.017
   30        1.562   3.431   0.000   0.000   4.993
--------------------------------------------------
tot         42.461  99.913  45.949   1.150 189.474

 


 magnetization (x)
 
# of ion       s       p       d       f       tot
--------------------------------------------------
    1        0.001   0.001   0.009   0.003   0.015
    2        0.001   0.001   0.007   0.003   0.010
    3        0.001   0.001   0.007   0.003   0.010
    4        0.001   0.001   0.009   0.003   0.015
    5        0.001  -0.000   0.007   0.003   0.010
    6        0.001  -0.000   0.007   0.003   0.010
    7        0.025   0.037   3.170   0.000   3.231
    8        0.025   0.037   3.169   0.000   3.231
    9        0.004  -0.005   1.641   0.000   1.640
   10        0.016   0.010   1.386   0.000   1.412
   11        0.004  -0.005   1.640   0.000   1.639
   12        0.016   0.010   1.383   0.000   1.410
   13        0.004  -0.027   0.000   0.000  -0.022
   14        0.004  -0.029   0.000   0.000  -0.025
   15        0.005  -0.090   0.000   0.000  -0.085
   16        0.005  -0.088   0.000   0.000  -0.082
   17        0.004  -0.029   0.000   0.000  -0.025
   18        0.004  -0.026   0.000   0.000  -0.022
   19        0.005  -0.016   0.000   0.000  -0.010
   20        0.005  -0.016   0.000   0.000  -0.011
   21        0.007  -0.092   0.000   0.000  -0.086
   22        0.005  -0.016   0.000   0.000  -0.010
   23        0.005  -0.016   0.000   0.000  -0.011
   24        0.007  -0.090   0.000   0.000  -0.084
   25        0.003  -0.017   0.000   0.000  -0.013
   26        0.003  -0.017   0.000   0.000  -0.014
   27        0.005  -0.086   0.000   0.000  -0.081
   28        0.003  -0.017   0.000   0.000  -0.013
   29        0.003  -0.017   0.000   0.000  -0.014
   30        0.005  -0.084   0.000   0.000  -0.079
--------------------------------------------------
tot          0.180  -0.687  12.434   0.018  11.944

 
    CHARGE:  cpu time    0.1943: real time    0.1948
    FORLOC:  cpu time    0.0111: real time    0.0111
    FORNL :  cpu time    1.2312: real time    1.2395
    STRESS:  cpu time    3.7703: real time    3.7818
    FORCOR:  cpu time    0.0891: real time    0.0897
    FORHAR:  cpu time    0.0188: real time    0.0189
    MIXING:  cpu time    0.0051: real time    0.0051
    OFIELD:  cpu time    0.0001: real time    0.0003

  FORCE on cell =-STRESS in cart. coord.  units (eV):
  Direction    XX          YY          ZZ          XY          YZ          ZX
  --------------------------------------------------------------------------------------
  Alpha Z   990.69272   990.69272   990.69272
  Ewald   -5303.44308 -5303.44308 -5361.79627     0.00000    -0.00000     0.00000
  Hartree  1248.25827  1248.25827  1196.23411     0.00000    -0.00000     0.00000
  E(xc)   -1066.81034 -1066.81034 -1066.72499     0.00000     0.00000     0.00000
  Local    -792.59452  -792.59452  -680.29579    -0.00000     0.00000     0.00000
  n-local   429.18733   428.68476   428.88380    -2.27024     0.00088    -0.00061
  augment   634.99798   634.99798   634.57091    -0.00000    -0.00000    -0.00000
  Kinetic  3858.09546  3862.36519  3857.58875   -11.76070     0.00052     0.00214
  Fock        0.00000     0.00000     0.00000     0.00000     0.00000     0.00000
  -------------------------------------------------------------------------------------
  Total       0.26740     0.26740    -0.84675     0.00000     0.00000    -0.00000
  in kB       1.23535     1.23535    -3.91180     0.00000     0.00000    -0.00000
  external pressure =       -0.48 kB  Pullay stress =        0.00 kB


 VOLUME and BASIS-vectors are now :
 -----------------------------------------------------------------------------
  energy-cutoff  :      520.00
  volume of cell :      346.81
      direct lattice vectors                 reciprocal lattice vectors
     3.864308968  3.864308968  0.000000000     0.129389240  0.129389240  0.000000000
     3.864308968 -3.864308968  0.000000000     0.129389240 -0.129389240  0.000000000
     0.000000000  0.000000000-11.612271777     0.000000000  0.000000000 -0.086115794

  length of vectors
     5.464958152  5.464958152 11.612271777     0.182984018  0.182984018  0.086115794


 FORCES acting on ions
    electron-ion (+dipol)            ewald-force                    non-local-force                 convergence-correction
 -----------------------------------------------------------------------------------------------
   0.111E-13 -.304E-13 -.671E-03   0.145E-13 0.253E-13 -.315E-03   0.847E-19 0.779E-19 0.000E+00   -.468E-14 -.213E-13 0.848E-05
   -.170E-13 -.717E-14 -.728E+02   -.455E-13 -.213E-13 0.723E+02   0.230E-18 -.678E-19 0.284E+00   0.328E-13 0.276E-13 -.228E-02
   0.129E-11 -.131E-11 0.728E+02   0.630E-13 0.142E-13 -.723E+02   -.339E-19 -.745E-19 -.284E+00   -.174E-13 -.710E-14 0.227E-02
   -.255E-12 0.227E-12 -.671E-03   0.563E-13 0.235E-13 -.315E-03   0.271E-19 0.271E-19 0.000E+00   0.326E-13 0.315E-13 0.848E-05
   0.437E-12 -.457E-12 -.728E+02   -.485E-13 -.213E-13 0.723E+02   -.542E-19 0.542E-19 0.284E+00   -.664E-15 -.229E-13 -.228E-02
   -.166E-13 0.127E-13 0.728E+02   0.149E-14 0.355E-13 -.723E+02   -.542E-19 0.000E+00 -.284E+00   0.324E-13 0.156E-13 0.227E-02
   0.125E-12 0.923E-13 0.165E+02   -.109E-12 -.250E-13 -.166E+02   0.339E-20 0.339E-20 0.462E-01   -.275E-13 -.370E-13 0.145E-02
   0.427E-13 -.527E-13 -.165E+02   -.153E-12 -.372E-13 0.166E+02   -.339E-20 -.339E-20 -.462E-01   0.139E-13 -.769E-14 -.145E-02
   0.126E-11 0.177E-12 -.394E+02   0.417E-13 0.975E-14 0.388E+02   0.339E-20 -.339E-20 0.615E+00   -.841E-13 -.263E-13 -.106E-01
   0.665E-12 -.623E-12 -.170E+02   0.000E+00 0.270E-13 0.162E+02   -.271E-19 0.271E-19 0.768E+00   -.193E-13 0.108E-13 -.805E-02
   0.845E-12 -.813E-12 0.394E+02   0.471E-13 -.863E-14 -.388E+02   -.169E-20 0.000E+00 -.615E+00   -.163E-13 -.129E-13 0.106E-01
   0.522E-12 0.847E-12 0.170E+02   0.284E-13 0.595E-13 -.162E+02   -.271E-19 -.813E-19 -.768E+00   -.509E-13 -.667E-13 0.804E-02
   0.670E-13 -.544E-13 -.694E+02   0.000E+00 0.166E-13 0.655E+02   0.678E-20 0.678E-20 0.390E+01   0.925E-14 -.170E-13 0.793E-02
   0.184E-12 0.190E-12 -.321E+02   -.281E-13 -.144E-13 0.273E+02   0.119E-19 0.102E-19 0.484E+01   -.238E-13 -.442E-13 0.926E-02
   0.851E-13 -.757E-13 0.395E+02   0.284E-13 0.369E-14 -.409E+02   0.339E-20 -.339E-20 0.141E+01   -.126E-13 -.135E-14 0.181E-02
   0.175E-12 0.180E-12 -.395E+02   0.355E-14 0.858E-14 0.409E+02   -.424E-20 -.424E-20 -.141E+01   -.389E-13 -.242E-13 -.181E-02
   0.170E-12 -.165E-12 0.321E+02   0.322E-14 0.121E-13 -.273E+02   -.119E-19 0.508E-20 -.484E+01   0.797E-14 -.118E-13 -.925E-02
   0.218E-12 0.140E-12 0.694E+02   0.107E-13 0.824E-14 -.655E+02   0.211E-19 0.196E-19 -.390E+01   -.209E-13 -.478E-13 -.793E-02
   0.898E-08 -.324E+02 -.176E+02   -.134E-13 0.274E+02 0.173E+02   0.000E+00 0.497E+01 0.245E+00   -.137E-13 0.881E-02 -.208E-02
   -.898E-08 -.324E+02 0.176E+02   -.434E-13 0.274E+02 -.173E+02   0.000E+00 0.497E+01 -.245E+00   0.356E-13 0.881E-02 0.208E-02
   -.205E-11 -.277E-05 -.652E-03   -.396E-14 0.297E-05 -.212E-03   -.217E-18 -.217E-18 -.136E-19   -.356E-13 -.292E-08 -.166E-05
   0.898E-08 0.324E+02 -.176E+02   0.300E-14 -.274E+02 0.173E+02   0.000E+00 -.497E+01 0.245E+00   -.146E-13 -.881E-02 -.208E-02
   -.898E-08 0.324E+02 0.176E+02   -.157E-13 -.274E+02 -.173E+02   0.000E+00 -.497E+01 -.245E+00   -.438E-13 -.881E-02 0.208E-02
   -.999E-13 0.277E-05 -.652E-03   0.273E-13 -.297E-05 -.212E-03   0.000E+00 0.434E-18 -.136E-19   0.811E-14 0.292E-08 -.166E-05
   -.324E+02 0.158E-11 -.176E+02   0.274E+02 -.281E-14 0.173E+02   0.497E+01 0.000E+00 0.245E+00   0.881E-02 -.353E-14 -.208E-02
   -.324E+02 -.115E-11 0.176E+02   0.274E+02 -.192E-13 -.173E+02   0.497E+01 0.000E+00 -.245E+00   0.881E-02 0.298E-13 0.208E-02
   -.277E-05 0.262E-12 -.652E-03   0.297E-05 -.133E-13 -.212E-03   0.651E-18 0.434E-18 0.000E+00   -.292E-08 -.359E-13 -.166E-05
   0.324E+02 -.643E-12 -.176E+02   -.274E+02 -.167E-14 0.173E+02   -.497E+01 0.000E+00 0.245E+00   -.881E-02 -.176E-13 -.208E-02
   0.324E+02 -.167E-12 0.176E+02   -.274E+02 -.185E-13 -.173E+02   -.497E+01 0.000E+00 -.245E+00   -.881E-02 -.538E-13 0.208E-02
   0.277E-05 -.477E-13 -.652E-03   -.297E-05 0.306E-14 -.212E-03   -.119E-17 0.000E+00 0.000E+00   0.292E-08 0.151E-13 -.166E-05
 -----------------------------------------------------------------------------------------------
   0.799E-11 -.564E-12 -.536E-02   -.276E-13 -.204E-14 0.000E+00   -.119E-17 0.867E-18 -.472E-15   -.136E-12 -.381E-12 -.767E-06
 
 
 POSITION                                       TOTAL-FORCE (eV/Angst)
 -----------------------------------------------------------------------------------
      3.86431      0.00000     -3.87076         0.000000     -0.000000      0.000000
      0.00000      0.00000     -7.76895         0.000000     -0.000000     -0.133942
      3.86431      0.00000    -11.58483         0.000000     -0.000000      0.133942
      0.00000      0.00000     -3.87076         0.000000     -0.000000      0.000000
      3.86431      0.00000     -7.76895         0.000000     -0.000000     -0.133942
      0.00000      0.00000    -11.58483         0.000000     -0.000000      0.133942
      1.93215      1.93215     -1.93614         0.000000     -0.000000      0.004846
      1.93215     -1.93215     -5.80538         0.000000     -0.000000     -0.004846
      1.93215      1.93215     -5.81040         0.000000     -0.000000     -0.001736
      1.93215     -1.93215     -9.68278         0.000000     -0.000000     -0.007134
      1.93215     -1.93215     -1.93111         0.000000     -0.000000      0.001736
      1.93215      1.93215     -9.67100         0.000000     -0.000000      0.007134
      1.93215     -1.93215     -7.72037         0.000000     -0.000000      0.000231
      1.93215      1.93215     -3.84129         0.000000     -0.000000      0.051420
      1.93215     -1.93215    -11.60079         0.000000     -0.000000      0.078939
      1.93215      1.93215     -7.75300         0.000000     -0.000000     -0.078939
      1.93215     -1.93215     -3.90022         0.000000     -0.000000     -0.051420
      1.93215      1.93215     -0.02115         0.000000     -0.000000     -0.000231
      5.79646      0.03633     -5.79938         0.000000     -0.001244      0.023042
      1.93215      0.03633     -1.94213         0.000000     -0.001244     -0.023042
      5.79646      0.00000     -9.67689         0.000000     -0.000000      0.000000
      1.93215     -0.03633     -5.79938         0.000000      0.001244      0.023042
      5.79646     -0.03633     -1.94213         0.000000      0.001244     -0.023042
      1.93215      0.00000     -9.67689         0.000000     -0.000000      0.000000
      3.90064      1.93215     -5.79938        -0.001244     -0.000000      0.023042
      3.90064     -1.93215     -1.94213        -0.001244     -0.000000     -0.023042
      3.86431      1.93215     -9.67689         0.000000     -0.000000      0.000000
      3.82798     -1.93215     -5.79938         0.001244     -0.000000      0.023042
      3.82798      1.93215     -1.94213         0.001244     -0.000000     -0.023042
      3.86431     -1.93215     -9.67689         0.000000     -0.000000      0.000000
 -----------------------------------------------------------------------------------
    total drift:                                0.000000     -0.000000     -0.005362


--------------------------------------------------------------------------------------------------------



  FREE ENERGIE OF THE ION-ELECTRON SYSTEM (eV)
  ---------------------------------------------------
  free  energy   TOTEN  =      -214.08353390 eV

  energy  without entropy=     -214.08353390  energy(sigma->0) =     -214.08353390
 


--------------------------------------------------------------------------------------------------------


    POTLOK:  cpu time    0.0930: real time    0.0932


--------------------------------------------------------------------------------------------------------


     LOOP+:  cpu time  108.4674: real time  108.9396
    4ORBIT:  cpu time    0.0000: real time    0.0000
 


 total charge     
 
# of ion       s       p       d       f       tot
--------------------------------------------------
    1        2.000   5.701   0.496   0.194   8.390
    2        2.000   5.700   0.493   0.190   8.383
    3        2.000   5.700   0.493   0.190   8.383
    4        2.000   5.701   0.496   0.194   8.390
    5        2.000   5.701   0.490   0.192   8.382
    6        2.000   5.700   0.490   0.192   8.382
    7        0.362   0.584   4.859   0.000   5.805
    8        0.362   0.585   4.858   0.000   5.805
    9        0.391   0.569   8.325   0.000   9.285
   10        0.425   0.637   8.313   0.000   9.375
   11        0.391   0.569   8.325   0.000   9.284
   12        0.425   0.638   8.310   0.000   9.373
   13        1.562   3.457   0.000   0.000   5.019
   14        1.561   3.459   0.000   0.000   5.021
   15        1.561   3.432   0.000   0.000   4.993
   16        1.561   3.435   0.000   0.000   4.996
   17        1.561   3.460   0.000   0.000   5.021
   18        1.562   3.457   0.000   0.000   5.019
   19        1.562   3.468   0.000   0.000   5.029
   20        1.562   3.467   0.000   0.000   5.029
   21        1.563   3.437   0.000   0.000   5.000
   22        1.562   3.468   0.000   0.000   5.029
   23        1.562   3.467   0.000   0.000   5.029
   24        1.563   3.439   0.000   0.000   5.002
   25        1.561   3.456   0.000   0.000   5.017
   26        1.561   3.456   0.000   0.000   5.017
   27        1.562   3.429   0.000   0.000   4.991
   28        1.561   3.456   0.000   0.000   5.017
   29        1.561   3.456   0.000   0.000   5.017
   30        1.562   3.431   0.000   0.000   4.993
--------------------------------------------------
tot         42.461  99.913  45.949   1.150 189.474

 


 magnetization (x)
 
# of ion       s       p       d       f       tot
--------------------------------------------------
    1        0.001   0.001   0.009   0.003   0.015
    2        0.001   0.001   0.007   0.003   0.010
    3        0.001   0.001   0.007   0.003   0.010
    4        0.001   0.001   0.009   0.003   0.015
    5        0.001  -0.000   0.007   0.003   0.010
    6        0.001  -0.000   0.007   0.003   0.010
    7        0.025   0.037   3.170   0.000   3.231
    8        0.025   0.037   3.169   0.000   3.231
    9        0.004  -0.005   1.641   0.000   1.640
   10        0.016   0.010   1.386   0.000   1.412
   11        0.004  -0.005   1.640   0.000   1.639
   12        0.016   0.010   1.383   0.000   1.410
   13        0.004  -0.027   0.000   0.000  -0.022
   14        0.004  -0.029   0.000   0.000  -0.025
   15        0.005  -0.090   0.000   0.000  -0.085
   16        0.005  -0.088   0.000   0.000  -0.082
   17        0.004  -0.029   0.000   0.000  -0.025
   18        0.004  -0.026   0.000   0.000  -0.022
   19        0.005  -0.016   0.000   0.000  -0.010
   20        0.005  -0.016   0.000   0.000  -0.011
   21        0.007  -0.092   0.000   0.000  -0.086
   22        0.005  -0.016   0.000   0.000  -0.010
   23        0.005  -0.016   0.000   0.000  -0.011
   24        0.007  -0.090   0.000   0.000  -0.084
   25        0.003  -0.017   0.000   0.000  -0.013
   26        0.003  -0.017   0.000   0.000  -0.014
   27        0.005  -0.086   0.000   0.000  -0.081
   28        0.003  -0.017   0.000   0.000  -0.013
   29        0.003  -0.017   0.000   0.000  -0.014
   30        0.005  -0.084   0.000   0.000  -0.079
--------------------------------------------------
tot          0.180  -0.687  12.434   0.018  11.944

 
 BZINTS: Fermi energy:  7.482725;228.000000 electrons
         Band energy:-288.653393;  BLOECHL correction: -0.039303

 total amount of memory used by VASP MPI-rank0    77474. kBytes
=======================================================================

   base      :      30000. kBytes
   nonlr-proj:       7219. kBytes
   fftplans  :       3030. kBytes
   grid      :       8843. kBytes
   one-center:        294. kBytes
   wavefun   :      28088. kBytes
 
  
  
 General timing and accounting informations for this job:
 ========================================================
  
                  Total CPU time used (sec):      117.470
                            User time (sec):      114.595
                          System time (sec):        2.875
                         Elapsed time (sec):      118.110
  
                   Maximum memory used (kb):      130440.
                   Average memory used (kb):           0.
  
                          Minor page faults:        41981
                          Major page faults:            0
                 Voluntary context switches:         1448
