 vasp.5.4.4.18Apr17-6-g9f103f2a35 (build Oct 03 2018 13:58:34) complex          
  
 executed on             LinuxIFC date 2019.06.04  02:15:05
 running on   40 total cores
 distrk:  each k-point on   20 cores,    2 groups
 distr:  one band on NCORES_PER_BAND=  10 cores,    2 groups


--------------------------------------------------------------------------------------------------------


 INCAR:
 POTCAR:    PAW_PBE La 06Sep2000                  
 POTCAR:    PAW_PBE Mn 06Sep2000                  
 POTCAR:    PAW_PBE Ni 02Aug2007                  
 POTCAR:    PAW_PBE O 08Apr2002                   

 ----------------------------------------------------------------------------- 
|                                                                             |
|           W    W    AA    RRRRR   N    N  II  N    N   GGGG   !!!           |
|           W    W   A  A   R    R  NN   N  II  NN   N  G    G  !!!           |
|           W    W  A    A  R    R  N N  N  II  N N  N  G       !!!           |
|           W WW W  AAAAAA  RRRRR   N  N N  II  N  N N  G  GGG   !            |
|           WW  WW  A    A  R   R   N   NN  II  N   NN  G    G                |
|           W    W  A    A  R    R  N    N  II  N    N   GGGG   !!!           |
|                                                                             |
|      You have enabled k-point parallelism (KPAR>1).                         |
|      This developmental code was originally  written by Paul Kent at ORNL,  |
|      and carefully double checked in Vienna.                                |
|      GW as well as linear response parallelism added by Martijn Marsman     |
|      and Georg Kresse.                                                      |
|      Carefully verify results versus KPAR=1.                                |
|      Report problems to Paul Kent and Vienna.                               |
|                                                                             |
 ----------------------------------------------------------------------------- 

 POTCAR:    PAW_PBE La 06Sep2000                  
   VRHFIN =La : [core=Kr4d]                                                     
   LEXCH  = PE                                                                  
   EATOM  =   865.9763 eV,   63.6475 Ry                                         
                                                                                
   TITEL  = PAW_PBE La 06Sep2000                                                
   LULTRA =        F    use ultrasoft PP ?                                      
   IUNSCR =        1    unscreen: 0-lin 1-nonlin 2-no                           
   RPACOR =    2.300    partial core radius                                     
   POMASS =  138.900; ZVAL   =   11.000    mass and valenz                      
   RCORE  =    2.800    outmost cutoff radius                                   
   RWIGS  =    2.900; RWIGS  =    1.535    wigner-seitz radius (au A)           
   ENMAX  =  219.292; ENMIN  =  164.469 eV                                      
   RCLOC  =    1.601    cutoff for local pot                                    
   LCOR   =        T    correct aug charges                                     
   LPAW   =        T    paw PP                                                  
   EAUG   =  583.575                                                            
   DEXC   =    0.000                                                            
   RMAX   =    2.853    core radius for proj-oper                               
   RAUG   =    1.300    factor for augmentation sphere                          
   RDEP   =    2.802    radius for radial grids                                 
   RDEPT  =    2.156    core radius for aug-charge                              
                                                                                
   Atomic configuration                                                         
   14 entries                                                                   
     n  l   j            E        occ.                                          
     1  0  0.50    -38741.0879   2.0000                                         
     2  0  0.50     -6166.6801   2.0000                                         
     2  1  1.50     -5526.1593   6.0000                                         
     3  0  0.50     -1319.0200   2.0000                                         
     3  1  1.50     -1114.5963   6.0000                                         
     3  2  2.50      -821.1793  10.0000                                         
     4  0  0.50      -266.3851   2.0000                                         
     4  1  1.50      -199.9276   6.0000                                         
     4  2  2.50      -103.8239  10.0000                                         
     5  0  0.50       -38.9172   2.0000                                         
     6  0  0.50        -3.6792   2.0000                                         
     5  1  1.50       -22.3948   6.0000                                         
     5  2  2.50        -3.0911   0.9999                                         
     4  3  2.50        -4.3603   0.0001                                         
   Description                                                                  
     l       E           TYP  RCUT    TYP  RCUT                                 
     0    -38.9171645     23  2.800                                             
     0     -3.6792381     23  2.800                                             
     1    -22.3948300     23  2.500                                             
     1     27.2116520     23  2.500                                             
     2     -3.0910934     23  2.500                                             
     2      1.0119135     23  2.500                                             
     3     -4.3602911     23  2.800                                             
     3     -5.7208737     23  2.800                                             
  local pseudopotential read in
  partial core-charges read in
  partial kinetic energy density read in
  atomic valenz-charges read in
  non local Contribution for L=           0  read in
    real space projection operators read in
  non local Contribution for L=           0  read in
    real space projection operators read in
  non local Contribution for L=           1  read in
    real space projection operators read in
  non local Contribution for L=           1  read in
    real space projection operators read in
  non local Contribution for L=           2  read in
    real space projection operators read in
  non local Contribution for L=           2  read in
    real space projection operators read in
  non local Contribution for L=           3  read in
    real space projection operators read in
  non local Contribution for L=           3  read in
    real space projection operators read in
    PAW grid and wavefunctions read in
 
   number of l-projection  operators is LMAX  =           8
   number of lm-projection operators is LMMAX =          32
 
 POTCAR:    PAW_PBE Mn 06Sep2000                  
   VRHFIN =Mn: d6 s1                                                            
   LEXCH  = PE                                                                  
   EATOM  =   416.7541 eV,   30.6306 Ry                                         
                                                                                
   TITEL  = PAW_PBE Mn 06Sep2000                                                
   LULTRA =        F    use ultrasoft PP ?                                      
   IUNSCR =        1    unscreen: 0-lin 1-nonlin 2-no                           
   RPACOR =    2.000    partial core radius                                     
   POMASS =   54.938; ZVAL   =    7.000    mass and valenz                      
   RCORE  =    2.300    outmost cutoff radius                                   
   RWIGS  =    2.500; RWIGS  =    1.323    wigner-seitz radius (au A)           
   ENMAX  =  269.864; ENMIN  =  202.398 eV                                      
   RCLOC  =    1.725    cutoff for local pot                                    
   LCOR   =        T    correct aug charges                                     
   LPAW   =        T    paw PP                                                  
   EAUG   =  500.711                                                            
   DEXC   =    0.000                                                            
   RMAX   =    2.343    core radius for proj-oper                               
   RAUG   =    1.300    factor for augmentation sphere                          
   RDEP   =    2.338    radius for radial grids                                 
   RDEPT  =    1.911    core radius for aug-charge                              
                                                                                
   Atomic configuration                                                         
    9 entries                                                                   
     n  l   j            E        occ.                                          
     1  0  0.50     -6424.8288   2.0000                                         
     2  0  0.50      -739.1154   2.0000                                         
     2  1  1.50      -625.3949   6.0000                                         
     3  0  0.50       -81.6100   2.0000                                         
     3  1  1.50       -50.4667   6.0000                                         
     3  2  2.50        -3.3745   6.0000                                         
     4  0  0.50        -4.1331   1.0000                                         
     4  1  0.50        -4.0817   0.0000                                         
     4  3  2.50        -1.3606   0.0000                                         
   Description                                                                  
     l       E           TYP  RCUT    TYP  RCUT                                 
     2     -3.3744664     23  2.300                                             
     2     -4.7350490     23  2.300                                             
     0     -4.1331408     23  2.300                                             
     0      7.6656614     23  2.300                                             
     1     -2.7211652     23  2.300                                             
     1     20.4087390     23  2.300                                             
  local pseudopotential read in
  partial core-charges read in
  partial kinetic energy density read in
  atomic valenz-charges read in
  non local Contribution for L=           2  read in
    real space projection operators read in
  non local Contribution for L=           2  read in
    real space projection operators read in
  non local Contribution for L=           0  read in
    real space projection operators read in
  non local Contribution for L=           0  read in
    real space projection operators read in
  non local Contribution for L=           1  read in
    real space projection operators read in
  non local Contribution for L=           1  read in
    real space projection operators read in
    PAW grid and wavefunctions read in
 
   number of l-projection  operators is LMAX  =           6
   number of lm-projection operators is LMMAX =          18
 
 POTCAR:    PAW_PBE Ni 02Aug2007                  
   VRHFIN =Ni:                                                                  
   LEXCH  = PE                                                                  
   EATOM  =  1077.6739 eV,   79.2068 Ry                                         
                                                                                
   TITEL  = PAW_PBE Ni 02Aug2007                                                
   LULTRA =        F    use ultrasoft PP ?                                      
   IUNSCR =        1    unscreen: 0-lin 1-nonlin 2-no                           
   RPACOR =    2.000    partial core radius                                     
   POMASS =   58.690; ZVAL   =   10.000    mass and valenz                      
   RCORE  =    2.300    outmost cutoff radius                                   
   RWIGS  =    2.430; RWIGS  =    1.286    wigner-seitz radius (au A)           
   ENMAX  =  269.532; ENMIN  =  202.149 eV                                      
   RCLOC  =    1.201    cutoff for local pot                                    
   LCOR   =        T    correct aug charges                                     
   LPAW   =        T    paw PP                                                  
   EAUG   =  544.565                                                            
   DEXC   =    0.000                                                            
   RMAX   =    2.357    core radius for proj-oper                               
   RAUG   =    1.300    factor for augmentation sphere                          
   RDEP   =    2.390    radius for radial grids                                 
   RDEPT  =    1.838    core radius for aug-charge                              
                                                                                
   Atomic configuration                                                         
    9 entries                                                                   
     n  l   j            E        occ.                                          
     1  0  0.50     -8206.4253   2.0000                                         
     2  0  0.50      -976.1748   2.0000                                         
     2  1  1.50      -839.0571   6.0000                                         
     3  0  0.50      -105.9991   2.0000                                         
     3  1  1.50       -66.4603   6.0000                                         
     3  2  2.50        -4.6458   9.0000                                         
     4  0  0.50        -4.4926   1.0000                                         
     4  1  1.50        -4.0817   0.0000                                         
     4  3  2.50        -1.3606   0.0000                                         
   Description                                                                  
     l       E           TYP  RCUT    TYP  RCUT                                 
     2     -4.6457903     23  2.300                                             
     2     -6.0063729     23  2.300                                             
     0     -4.4925590     23  2.300                                             
     0      5.0102601     23  2.300                                             
     1     -2.7211652     23  2.300                                             
     1     16.5183231     23  2.300                                             
  local pseudopotential read in
  partial core-charges read in
  partial kinetic energy density read in
  atomic valenz-charges read in
  non local Contribution for L=           2  read in
    real space projection operators read in
  non local Contribution for L=           2  read in
    real space projection operators read in
  non local Contribution for L=           0  read in
    real space projection operators read in
  non local Contribution for L=           0  read in
    real space projection operators read in
  non local Contribution for L=           1  read in
    real space projection operators read in
  non local Contribution for L=           1  read in
    real space projection operators read in
    PAW grid and wavefunctions read in
 
   number of l-projection  operators is LMAX  =           6
   number of lm-projection operators is LMMAX =          18
 
 POTCAR:    PAW_PBE O 08Apr2002                   
   VRHFIN =O: s2p4                                                              
   LEXCH  = PE                                                                  
   EATOM  =   432.3788 eV,   31.7789 Ry                                         
                                                                                
   TITEL  = PAW_PBE O 08Apr2002                                                 
   LULTRA =        F    use ultrasoft PP ?                                      
   IUNSCR =        1    unscreen: 0-lin 1-nonlin 2-no                           
   RPACOR =    1.200    partial core radius                                     
   POMASS =   16.000; ZVAL   =    6.000    mass and valenz                      
   RCORE  =    1.520    outmost cutoff radius                                   
   RWIGS  =    1.550; RWIGS  =    0.820    wigner-seitz radius (au A)           
   ENMAX  =  400.000; ENMIN  =  300.000 eV                                      
   ICORE  =        2    local potential                                         
   LCOR   =        T    correct aug charges                                     
   LPAW   =        T    paw PP                                                  
   EAUG   =  605.392                                                            
   DEXC   =    0.000                                                            
   RMAX   =    1.553    core radius for proj-oper                               
   RAUG   =    1.300    factor for augmentation sphere                          
   RDEP   =    1.550    radius for radial grids                                 
   RDEPT  =    1.329    core radius for aug-charge                              
                                                                                
   Atomic configuration                                                         
    4 entries                                                                   
     n  l   j            E        occ.                                          
     1  0  0.50      -514.6923   2.0000                                         
     2  0  0.50       -23.9615   2.0000                                         
     2  1  0.50        -9.0305   4.0000                                         
     3  2  1.50        -9.5241   0.0000                                         
   Description                                                                  
     l       E           TYP  RCUT    TYP  RCUT                                 
     0    -23.9615318     23  1.200                                             
     0     -9.5240782     23  1.200                                             
     1     -9.0304911     23  1.520                                             
     1      8.1634956     23  1.520                                             
     2     -9.5240782      7  1.500                                             
  local pseudopotential read in
  partial core-charges read in
  partial kinetic energy density read in
  kinetic energy density of atom read in
  atomic valenz-charges read in
  non local Contribution for L=           0  read in
    real space projection operators read in
  non local Contribution for L=           0  read in
    real space projection operators read in
  non local Contribution for L=           1  read in
    real space projection operators read in
  non local Contribution for L=           1  read in
    real space projection operators read in
    PAW grid and wavefunctions read in
 
   number of l-projection  operators is LMAX  =           4
   number of lm-projection operators is LMMAX =           8
 
 Optimization of the real space projectors (new method)

 maximal supplied QI-value         = 13.42
 optimisation between [QCUT,QGAM] = [ 11.67, 23.35] = [ 38.16,152.62] Ry 
 Optimized for a Real-space Cutoff    1.63 Angstroem

   l    n(q)    QCUT    max X(q) W(low)/X(q) W(high)/X(q)  e(spline) 
   0     11    11.673    13.882    0.27E-04    0.79E-05    0.11E-06
   0     11    11.673    12.184    0.39E-04    0.13E-04    0.19E-06
   1     11    11.673     4.523    0.73E-05    0.76E-05    0.12E-06
   1     11    11.673     4.424    0.87E-05    0.13E-04    0.19E-06
   2     10    11.673    52.481    0.65E-04    0.36E-04    0.18E-06
   2     10    11.673    38.501    0.61E-04    0.33E-04    0.17E-06
   3     10    11.673    65.631    0.17E-03    0.14E-03    0.37E-06
   3     10    11.673    56.854    0.17E-03    0.14E-03    0.37E-06
 Optimization of the real space projectors (new method)

 maximal supplied QI-value         = 16.25
 optimisation between [QCUT,QGAM] = [ 11.54, 23.24] = [ 37.28,151.24] Ry 
 Optimized for a Real-space Cutoff    1.53 Angstroem

   l    n(q)    QCUT    max X(q) W(low)/X(q) W(high)/X(q)  e(spline) 
   2     10    11.539   110.144    0.12E-03    0.13E-03    0.25E-06
   2     10    11.539   103.200    0.12E-03    0.13E-03    0.25E-06
   0     11    11.539    68.437    0.46E-04    0.21E-04    0.32E-06
   0     11    11.539    33.971    0.37E-04    0.19E-04    0.29E-06
   1     10    11.539    17.065    0.51E-04    0.22E-04    0.13E-06
   1     10    11.539    12.540    0.41E-04    0.18E-04    0.11E-06
 Optimization of the real space projectors (new method)

 maximal supplied QI-value         = 16.25
 optimisation between [QCUT,QGAM] = [ 11.54, 23.24] = [ 37.28,151.24] Ry 
 Optimized for a Real-space Cutoff    1.45 Angstroem

   l    n(q)    QCUT    max X(q) W(low)/X(q) W(high)/X(q)  e(spline) 
   2      9    11.539    60.317    0.19E-03    0.47E-04    0.16E-06
   2      9    11.539    55.921    0.19E-03    0.48E-04    0.16E-06
   0     10    11.539    51.690    0.80E-04    0.50E-04    0.24E-06
   0     10    11.539    30.015    0.73E-04    0.45E-04    0.22E-06
   1     10    11.539    18.849    0.87E-04    0.16E-03    0.71E-07
   1     10    11.539    14.624    0.73E-04    0.13E-03    0.64E-07
 Optimization of the real space projectors (new method)

 maximal supplied QI-value         = 24.76
 optimisation between [QCUT,QGAM] = [ 11.64, 23.27] = [ 37.91,151.63] Ry 
 Optimized for a Real-space Cutoff    1.14 Angstroem

   l    n(q)    QCUT    max X(q) W(low)/X(q) W(high)/X(q)  e(spline) 
   0      8    11.635    20.381    0.10E-03    0.33E-03    0.24E-06
   0      8    11.635    15.268    0.11E-03    0.35E-03    0.26E-06
   1      7    11.635     5.964    0.24E-03    0.31E-03    0.30E-06
   1      7    11.635     5.382    0.22E-03    0.25E-03    0.26E-06
  PAW_PBE La 06Sep2000                  :
 energy of atom  1       EATOM= -865.9763
 kinetic energy error for atom=    0.0009 (will be added to EATOM!!)
  PAW_PBE Mn 06Sep2000                  :
 energy of atom  2       EATOM= -416.7541
 kinetic energy error for atom=    0.0024 (will be added to EATOM!!)
  PAW_PBE Ni 02Aug2007                  :
 energy of atom  3       EATOM=-1077.6739
 kinetic energy error for atom=    0.0030 (will be added to EATOM!!)
  PAW_PBE O 08Apr2002                   :
 energy of atom  4       EATOM= -432.3788
 kinetic energy error for atom=    0.0208 (will be added to EATOM!!)
 
 
 POSCAR: SCEL6_6_1_1_0_4_1/3                     
  positions in direct lattice
  velocities in cartesian coordinates
 exchange correlation table for  LEXCH =        8
   RHO(1)=    0.500       N(1)  =     2000
   RHO(2)=  100.500       N(2)  =     4000
 


--------------------------------------------------------------------------------------------------------


 ion  position               nearest neighbor table
   1  0.500  0.333  0.846-  23 2.65  30 2.65  18 2.67  29 2.70  22 2.70  17 2.75  17 2.75  28 2.80
                            21 2.80  12 3.26  11 3.31  11 3.31  10 3.36  10 3.37   9 3.42   9 3.42
   2  0.000  0.668  0.678-  22 2.64  29 2.64  17 2.69  28 2.69  21 2.69  16 2.75  16 2.75  27 2.80
                            20 2.80  15 2.80  11 3.26  10 3.30  10 3.30   9 3.35   9 3.37   7 3.42
   3  0.500  0.000  0.500-  14 2.73  16 2.73  21 2.73  24 2.73  25 2.73  28 2.73  19 2.73  26 2.73
                            27 2.73  20 2.73  15 2.74  15 2.74  10 3.35  12 3.35   7 3.36   7 3.36
   4  0.000  0.332  0.322-  23 2.64  30 2.64  13 2.69  25 2.69  24 2.69  14 2.75  14 2.75  19 2.80
                            26 2.80  15 2.80  11 3.26  12 3.30  12 3.30   8 3.35   8 3.37   7 3.42
   5  0.500  0.667  0.154-  22 2.65  29 2.65  18 2.67  23 2.70  30 2.70  13 2.75  13 2.75  25 2.80
                            24 2.80  10 3.26  11 3.31  11 3.31  12 3.36  12 3.37   8 3.42   8 3.42
   6  0.000  0.000  0.000-  18 2.74  18 2.74  13 2.74  17 2.74  23 2.76  29 2.76  30 2.76  22 2.76
                            28 2.76  21 2.76  24 2.76  25 2.76  11 3.36  11 3.36   8 3.37   9 3.37
   7  0.500  0.500  0.500-  14 1.90  16 1.90  19 1.96  20 1.96  26 1.96  27 1.96   3 3.36   3 3.36
                             4 3.42   2 3.42   2 3.42   4 3.42
   8  0.000  0.833  0.334-  13 1.88  24 1.90  25 1.90  19 1.92  26 1.92  15 1.94   4 3.35   3 3.36
                             3 3.36   6 3.37   4 3.37   5 3.42   5 3.42
   9  0.000  0.167  0.666-  17 1.88  21 1.90  28 1.90  27 1.92  20 1.92  15 1.94   2 3.35   3 3.36
                             3 3.36   6 3.37   2 3.37   1 3.42   1 3.42
  10  0.500  0.834  0.832-  18 1.95  22 1.97  29 1.97  28 1.97  21 1.97  16 1.98   5 3.26   2 3.30
                             2 3.30   3 3.35   1 3.36   1 3.37   6 3.37   6 3.37
  11  0.000  0.500  0.000-  22 1.92  23 1.92  29 1.92  30 1.92  13 2.00  17 2.00   2 3.26   4 3.26
                             1 3.31   5 3.31   1 3.31   5 3.31   6 3.36   6 3.36
  12  0.500  0.166  0.168-  18 1.95  23 1.97  30 1.97  25 1.97  24 1.97  14 1.98   1 3.26   4 3.30
                             4 3.30   3 3.35   5 3.36   5 3.37   6 3.37   6 3.37
  13  0.000  0.672  0.172-   8 1.88  11 2.00   4 2.69   6 2.74   5 2.75   5 2.75
  14  0.500  0.335  0.338-   7 1.90  12 1.98   3 2.73   4 2.75   4 2.75
  15  0.000  0.000  0.500-   9 1.94   8 1.94   3 2.74   3 2.74   4 2.80   2 2.80
  16  0.500  0.665  0.662-   7 1.90  10 1.98   3 2.73   2 2.75   2 2.75
  17  0.000  0.328  0.828-   9 1.88  11 2.00   2 2.69   6 2.74   1 2.75   1 2.75
  18  0.500  0.000  0.000-  10 1.95  12 1.95   1 2.67   5 2.67   6 2.74   6 2.74
  19  0.751  0.669  0.417-   8 1.92   7 1.96   3 2.73   4 2.80
  20  0.249  0.331  0.583-   9 1.92   7 1.96   3 2.73   2 2.80
  21  0.755  0.001  0.746-   9 1.90  10 1.97   2 2.69   3 2.73   6 2.76   1 2.80
  22  0.248  0.663  0.916-  11 1.92  10 1.97   2 2.64   5 2.65   1 2.70   6 2.76
  23  0.752  0.337  0.084-  11 1.92  12 1.97   4 2.64   1 2.65   5 2.70   6 2.76
  24  0.245  0.999  0.254-   8 1.90  12 1.97   4 2.69   3 2.73   6 2.76   5 2.80
  25  0.755  0.999  0.254-   8 1.90  12 1.97   4 2.69   3 2.73   6 2.76   5 2.80
  26  0.249  0.669  0.417-   8 1.92   7 1.96   3 2.73   4 2.80
  27  0.751  0.331  0.583-   9 1.92   7 1.96   3 2.73   2 2.80
  28  0.245  0.001  0.746-   9 1.90  10 1.97   2 2.69   3 2.73   6 2.76   1 2.80
  29  0.752  0.663  0.916-  11 1.92  10 1.97   2 2.64   5 2.65   1 2.70   6 2.76
  30  0.248  0.337  0.084-  11 1.92  12 1.97   4 2.64   1 2.65   5 2.70   6 2.76
 
  LATTYP: Found a simple monoclinic cell.
 ALAT       =    11.6579278932
 B/A-ratio  =     0.4707683726
 C/A-ratio  =     1.4134714085
 COS(beta)  =    -0.9429136369
  
  Lattice vectors:
  
 A1 = (  -0.0048195372,   0.0048195372, -11.6579259008)
 A2 = (  -3.8807319406,  -3.8807319406,   0.0000000000)
 A3 = (  -3.8740638259,   3.8740638259,  15.5406760638)


Analysis of symmetry for initial positions (statically):
=====================================================================
 Subroutine PRICEL returns:
 Original cell was already a primitive cell.
 

 Routine SETGRP: Setting up the symmetry group for a 
 simple monoclinic supercell.


 Subroutine GETGRP returns: Found  4 space group operations
 (whereof  4 operations were pure point group operations)
 out of a pool of  4 trial point group operations.


The static configuration has the point symmetry C_2h.


Analysis of symmetry for dynamics (positions and initial velocities):
=====================================================================
 Subroutine PRICEL returns:
 Original cell was already a primitive cell.
 

 Routine SETGRP: Setting up the symmetry group for a 
 simple monoclinic supercell.


 Subroutine GETGRP returns: Found  4 space group operations
 (whereof  4 operations were pure point group operations)
 out of a pool of  4 trial point group operations.


The dynamic configuration has the point symmetry C_2h.


Analysis of structural, dynamic, and magnetic symmetry:
=====================================================================
 Subroutine PRICEL returns:
 Original cell was already a primitive cell.
 

 Routine SETGRP: Setting up the symmetry group for a 
 simple monoclinic supercell.


 Subroutine GETGRP returns: Found  4 space group operations
 (whereof  4 operations were pure point group operations)
 out of a pool of  4 trial point group operations.


The magnetic configuration has the point symmetry C_2h.


 Subroutine INISYM returns: Found  4 space group operations
 (whereof  4 operations are pure point group operations),
 and found     1 'primitive' translations

 
 
 KPOINTS: Automatic mesh                          

Automatic generation of k-mesh.
 generate k-points for:    4    3    2
Space group operators:
 irot       det(A)        alpha          n_x          n_y          n_z        tau_x        tau_y        tau_z
    1     1.000000     0.000000     1.000000     0.000000     0.000000     0.000000     0.000000     0.000000
    2    -1.000000     0.000000     1.000000     0.000000     0.000000     0.000000     0.000000     0.000000
    3     1.000000   180.000000     0.707107     0.707107     0.000000     0.000000     0.000000     0.000000
    4    -1.000000   180.000000     0.707107     0.707107     0.000000     0.000000     0.000000     0.000000
 
 Subroutine IBZKPT returns following result:
 ===========================================
 
 Found     12 irreducible k-points:
 
 Following reciprocal coordinates:
            Coordinates               Weight
  0.000000  0.000000  0.000000      1.000000
  0.250000  0.000000  0.000000      2.000000
  0.500000  0.000000  0.000000      1.000000
  0.000000  0.333333 -0.000000      2.000000
  0.250000  0.333333 -0.000000      4.000000
  0.500000  0.333333  0.000000      2.000000
  0.000000  0.000000  0.500000      1.000000
  0.250000  0.000000  0.500000      2.000000
  0.500000  0.000000  0.500000      1.000000
  0.000000  0.333333  0.500000      2.000000
  0.250000  0.333333  0.500000      4.000000
  0.500000  0.333333  0.500000      2.000000
 
 Following cartesian coordinates:
            Coordinates               Weight
  0.000000  0.000000  0.000000      1.000000
  0.032210  0.032210  0.000000      2.000000
  0.064421  0.064421  0.000000      1.000000
 -0.028645  0.028645  0.028617      2.000000
  0.003565  0.060856  0.028617      4.000000
  0.035776  0.093066  0.028617      2.000000
  0.021457 -0.021457  0.042872      1.000000
  0.053668  0.010753  0.042872      2.000000
  0.085878  0.042964  0.042872      1.000000
 -0.007188  0.007188  0.071488      2.000000
  0.025022  0.039398  0.071488      4.000000
  0.057233  0.071609  0.071488      2.000000
 
 TETIRR: Found     72 inequivalent tetrahedra from      144


--------------------------------------------------------------------------------------------------------




 Dimension of arrays:
   k-points           NKPTS =     12   k-points in BZ     NKDIM =     12   number of bands    NBANDS=    146
   number of dos      NEDOS =    301   number of ions     NIONS =     30
   non local maximal  LDIM  =      8   non local SUM 2l+1 LMDIM =     32
   total plane-waves  NPLWV = 151200
   max r-space proj   IRMAX =   7821   max aug-charges    IRDMAX=  22698
   dimension x,y,z NGX =    42 NGY =   50 NGZ =   72
   dimension x,y,z NGXF=    84 NGYF=  100 NGZF=  144
   support grid    NGXF=    84 NGYF=  100 NGZF=  144
   ions per type =               6   3   3  18
   NGX,Y,Z   is equivalent  to a cutoff of  12.72, 12.37, 12.57 a.u.
   NGXF,Y,Z  is equivalent  to a cutoff of  25.44, 24.74, 25.15 a.u.

 SYSTEM =  final                                   
 POSCAR =  SCEL6_6_1_1_0_4_1/3                     

 Startparameter for this run:
   NWRITE =      2    write-flag & timer
   PREC   = accura    normal or accurate (medium, high low for compatibility)
   ISTART =      0    job   : 0-new  1-cont  2-samecut
   ICHARG =      1    charge: 1-file 2-atom 10-const
   ISPIN  =      2    spin polarized calculation?
   LNONCOLLINEAR =      F non collinear calculations
   LSORBIT =      F    spin-orbit coupling
   INIWAV =      1    electr: 0-lowe 1-rand  2-diag
   LASPH  =      F    aspherical Exc in radial PAW
   METAGGA=      F    non-selfconsistent MetaGGA calc.

 Electronic Relaxation 1
   ENCUT  =  520.0 eV  38.22 Ry    6.18 a.u.  10.20 12.50 17.70*2*pi/ulx,y,z
   ENINI  =  520.0     initial cutoff
   ENAUG  =  605.4 eV  augmentation charge cutoff
   NELM   =    100;   NELMIN=  2; NELMDL= -5     # of ELM steps 
   EDIFF  = 0.1E-02   stopping-criterion for ELM
   LREAL  =      T    real-space projection
   NLSPLINE    = F    spline interpolate recip. space projectors
   LCOMPAT=      F    compatible to vasp.4.4
   GGA_COMPAT  = T    GGA compatible to vasp.4.4-vasp.4.6
   LMAXPAW     = -100 max onsite density
   LMAXMIX     =    6 max onsite mixed and CHGCAR
   VOSKOWN=      0    Vosko Wilk Nusair interpolation
   ROPT   =   -0.00025  -0.00025  -0.00025  -0.00025
 Ionic relaxation
   EDIFFG = 0.1E-01   stopping-criterion for IOM
   NSW    =      0    number of steps for IOM
   NBLOCK =      1;   KBLOCK =      1    inner block; outer block 
   IBRION =     -1    ionic relax: 0-MD 1-quasi-New 2-CG
   NFREE  =      0    steps in history (QN), initial steepest desc. (CG)
   ISIF   =      2    stress and relaxation
   IWAVPR =     10    prediction:  0-non 1-charg 2-wave 3-comb
   ISYM   =      2    0-nonsym 1-usesym 2-fastsym
   LCORR  =      T    Harris-Foulkes like correction to forces

   POTIM  = 0.5000    time-step for ionic-motion
   TEIN   =    0.0    initial temperature
   TEBEG  =    0.0;   TEEND  =   0.0 temperature during run
   SMASS  =  -3.00    Nose mass-parameter (am)
   estimated Nose-frequenzy (Omega)   =  0.10E-29 period in steps =****** mass=  -0.688E-27a.u.
   SCALEE = 1.0000    scale energy and forces
   NPACO  =    256;   APACO  = 16.0  distance and # of slots for P.C.
   PSTRESS=    0.0 pullay stress

  Mass of Ions in am
   POMASS = 138.90 54.94 58.69 16.00
  Ionic Valenz
   ZVAL   =  11.00  7.00 10.00  6.00
  Atomic Wigner-Seitz radii
   RWIGS  =  -1.00 -1.00 -1.00 -1.00
  virtual crystal weights 
   VCA    =   1.00  1.00  1.00  1.00
   NELECT =     225.0000    total number of electrons
   NUPDOWN=      -1.0000    fix difference up-down

 DOS related values:
   EMIN   =  10.00;   EMAX   =-10.00  energy-range for DOS
   EFERMI =   0.00
   ISMEAR =    -5;   SIGMA  =   0.05  broadening in eV -4-tet -1-fermi 0-gaus

 Electronic relaxation 2 (details)
   IALGO  =     68    algorithm
   LDIAG  =      T    sub-space diagonalisation (order eigenvalues)
   LSUBROT=      F    optimize rotation matrix (better conditioning)
   TURBO    =      0    0=normal 1=particle mesh
   IRESTART =      0    0=no restart 2=restart with 2 vectors
   NREBOOT  =      0    no. of reboots
   NMIN     =      0    reboot dimension
   EREF     =   0.00    reference energy to select bands
   IMIX   =      4    mixing-type and parameters
     AMIX     =   0.40;   BMIX     =  1.00
     AMIX_MAG =   1.60;   BMIX_MAG =  1.00
     AMIN     =   0.10
     WC   =   100.;   INIMIX=   1;  MIXPRE=   1;  MAXMIX= -45

 Intra band minimization:
   WEIMIN = 0.0000     energy-eigenvalue tresh-hold
   EBREAK =  0.17E-05  absolut break condition
   DEPER  =   0.30     relativ break condition  

   TIME   =   0.40     timestep for ELM

  volume/ion in A,a.u.               =      11.70        78.98
  Fermi-wavevector in a.u.,A,eV,Ry     =   1.411406  2.667170 27.103707  1.992066
  Thomas-Fermi vector in A             =   2.533260
 
 Write flags
   LWAVE        =      F    write WAVECAR
   LDOWNSAMPLE  =      F    k-point downsampling of WAVECAR
   LCHARG       =      T    write CHGCAR
   LVTOT        =      F    write LOCPOT, total local potential
   LVHAR        =      F    write LOCPOT, Hartree potential only
   LELF         =      F    write electronic localiz. function (ELF)
   LORBIT       =     11    0 simple, 1 ext, 2 COOP (PROOUT), +10 PAW based schemes


 Dipole corrections
   LMONO  =      F    monopole corrections only (constant potential shift)
   LDIPOL =      F    correct potential (dipole corrections)
   IDIPOL =      0    1-x, 2-y, 3-z, 4-all directions 
   EPSILON=  1.0000000 bulk dielectric constant

 LDA+U is selected, type is set to LDAUTYPE =  2
   angular momentum for each species LDAUL =     0    2    2    0
   U (eV)           for each species LDAUU =   0.0  3.9  6.2  0.0
   J (eV)           for each species LDAUJ =   0.0  0.0  0.0  0.0
 Exchange correlation treatment:
   GGA     =    --    GGA type
   LEXCH   =     8    internal setting for exchange type
   VOSKOWN=      0    Vosko Wilk Nusair interpolation
   LHFCALC =     F    Hartree Fock is set to
   LHFONE  =     F    Hartree Fock one center treatment
   AEXX    =    0.0000 exact exchange contribution

 Linear response parameters
   LEPSILON=     F    determine dielectric tensor
   LRPA    =     F    only Hartree local field effects (RPA)
   LNABLA  =     F    use nabla operator in PAW spheres
   LVEL    =     F    velocity operator in full k-point grid
   LINTERFAST=   F  fast interpolation
   KINTER  =     0    interpolate to denser k-point grid
   CSHIFT  =0.1000    complex shift for real part using Kramers Kronig
   OMEGAMAX=  -1.0    maximum frequency
   DEG_THRESHOLD= 0.2000000E-02 threshold for treating states as degnerate
   RTIME   =   -0.100 relaxation time in fs
  (WPLASMAI=    0.000 imaginary part of plasma frequency in eV, 0.658/RTIME)
   DFIELD  = 0.0000000 0.0000000 0.0000000 field for delta impulse in time
 
 Orbital magnetization related:
   ORBITALMAG=     F  switch on orbital magnetization
   LCHIMAG   =     F  perturbation theory with respect to B field
   DQ        =  0.001000  dq finite difference perturbation B field
   LLRAUG    =     F  two centre corrections for induced B field



--------------------------------------------------------------------------------------------------------


 Static calculation
 charge density and potential will be updated during run
 spin polarized calculation
 RMM-DIIS sequential band-by-band and
  variant of blocked Davidson during initial phase
 perform sub-space diagonalisation
    before iterative eigenvector-optimisation
 modified Broyden-mixing scheme, WC =      100.0
 initial mixing is a Kerker type mixing with AMIX =  0.4000 and BMIX =      1.0000
 Hartree-type preconditioning will be used
 using additional bands           33
 real space projection scheme for non local part
 use partial core corrections
 calculate Harris-corrections to forces 
   (improved forces if not selfconsistent)
 use gradient corrections 
 use of overlap-Matrix (Vanderbilt PP)
 Fermi weights with tetrahedron method with Bloechl corrections


--------------------------------------------------------------------------------------------------------


  energy-cutoff  :      520.00
  volume of cell :      351.12
      direct lattice vectors                 reciprocal lattice vectors
     3.880731941  3.880731941  0.000000000     0.128841674  0.128841674  0.000000000
    -3.878883363  3.878883363  3.882750163    -0.085935483  0.085935483  0.085849605
     3.883702900 -3.883702900  7.775175738     0.042914273 -0.042914273  0.085743069

  length of vectors
     5.488183742  6.720656301  9.519435602     0.182209643  0.148795058  0.105048291


 
 k-points in units of 2pi/SCALE and weight: Automatic mesh                          
   0.00000000  0.00000000  0.00000000       0.042
   0.03221042  0.03221042  0.00000000       0.083
   0.06442084  0.06442084  0.00000000       0.042
  -0.02864516  0.02864516  0.02861654       0.083
   0.00356526  0.06085558  0.02861654       0.167
   0.03577568  0.09306600  0.02861654       0.083
   0.02145714 -0.02145714  0.04287153       0.042
   0.05366755  0.01075328  0.04287153       0.083
   0.08587797  0.04296370  0.04287153       0.042
  -0.00718802  0.00718802  0.07148807       0.083
   0.02502239  0.03939844  0.07148807       0.167
   0.05723281  0.07160886  0.07148807       0.083
 
 k-points in reciprocal lattice and weights: Automatic mesh                          
   0.00000000  0.00000000  0.00000000       0.042
   0.25000000  0.00000000  0.00000000       0.083
   0.50000000  0.00000000  0.00000000       0.042
   0.00000000  0.33333333 -0.00000000       0.083
   0.25000000  0.33333333 -0.00000000       0.167
   0.50000000  0.33333333  0.00000000       0.083
   0.00000000  0.00000000  0.50000000       0.042
   0.25000000  0.00000000  0.50000000       0.083
   0.50000000  0.00000000  0.50000000       0.042
   0.00000000  0.33333333  0.50000000       0.083
   0.25000000  0.33333333  0.50000000       0.167
   0.50000000  0.33333333  0.50000000       0.083
 
 position of ions in fractional coordinates (direct lattice) 
   0.50000000  0.33298842  0.84614479
   0.00000000  0.66779820  0.67827574
   0.50000000  0.00000000  0.50000000
   0.00000000  0.33220180  0.32172426
   0.50000000  0.66701158  0.15385521
   0.00000000  0.00000000  0.00000000
   0.50000000  0.50000000  0.50000000
   0.00000000  0.83335588  0.33351705
   0.00000000  0.16664412  0.66648295
   0.50000000  0.83351824  0.83201284
   0.00000000  0.50000000  0.00000000
   0.50000000  0.16648176  0.16798716
   0.00000000  0.67202852  0.17194030
   0.50000000  0.33510627  0.33815418
   0.00000000  0.00000000  0.50000000
   0.50000000  0.66489373  0.66184582
   0.00000000  0.32797148  0.82805970
   0.50000000  0.00000000  0.00000000
   0.75148713  0.66928672  0.41674018
   0.24851287  0.33071328  0.58325982
   0.75501096  0.00129101  0.74644182
   0.24756301  0.66346310  0.91621447
   0.75243699  0.33653690  0.08378553
   0.24498904  0.99870899  0.25355818
   0.75501096  0.99870899  0.25355818
   0.24851287  0.66928672  0.41674018
   0.75148713  0.33071328  0.58325982
   0.24498904  0.00129101  0.74644182
   0.75243699  0.66346310  0.91621447
   0.24756301  0.33653690  0.08378553
 
 position of ions in cartesian coordinates  (Angst):
   3.93491772 -0.05418578  7.87183525
   0.04391014 -0.04391014  7.86660663
   3.88221742 -0.00148548  3.88758787
  -0.03909060  0.03909060  3.79131927
  -0.04936624  3.93009818  3.78609065
   0.00000000  0.00000000  0.00000000
   1.94277574  1.93795620  5.82896295
  -1.93720912  1.93720912  5.82886639
   1.94202866 -1.94202866  5.82905951
   1.93853661  1.94219533  9.70538915
  -1.93944168  1.93944168  1.94137508
   1.94701487  1.93371708  1.95253675
  -1.93895519  1.93895519  3.94618491
   1.95381819  1.92691375  3.93034210
   1.94185145 -1.94185145  3.88758787
   1.93173328  1.94899866  7.72758380
   1.94377473 -1.94377473  7.71174099
   1.94036597  1.94036597  0.00000000
   1.93873001  3.89391021  5.83890123
   1.94682147 -0.01799780  5.81902467
   5.82394574  0.03604457  5.80872899
   1.94553449 -0.02408310  9.69978997
   1.94001699  3.89999550  1.95813593
  -1.93839426  3.83986783  5.84919691
   0.04086411  5.81912620  5.84919691
  -0.01317827  1.94200194  5.83890123
   3.89872974  1.93391047  5.81902467
   3.84468737 -1.94321380  5.80872899
   3.90481504  1.93519745  9.69978997
  -0.01926356  1.94071495  1.95813593
 


--------------------------------------------------------------------------------------------------------


 k-point  1 :   0.0000 0.0000 0.0000  plane waves:    9471
 k-point  2 :   0.2500 0.0000 0.0000  plane waves:    9498
 k-point  3 :   0.5000 0.0000 0.0000  plane waves:    9456
 k-point  4 :   0.0000 0.3333-0.0000  plane waves:    9456
 k-point  5 :   0.2500 0.3333-0.0000  plane waves:    9447
 k-point  6 :   0.5000 0.3333 0.0000  plane waves:    9438
 k-point  7 :   0.0000 0.0000 0.5000  plane waves:    9452
 k-point  8 :   0.2500 0.0000 0.5000  plane waves:    9454
 k-point  9 :   0.5000 0.0000 0.5000  plane waves:    9480
 k-point 10 :   0.0000 0.3333 0.5000  plane waves:    9460
 k-point 11 :   0.2500 0.3333 0.5000  plane waves:    9438
 k-point 12 :   0.5000 0.3333 0.5000  plane waves:    9470

 maximum and minimum number of plane-waves per node :       970      914

 maximum number of plane-waves:      9498
 maximum index in each direction: 
   IXMAX=   10   IYMAX=   12   IZMAX=   17
   IXMIN=  -10   IYMIN=  -12   IZMIN=  -18


 real space projection operators:
  total allocation   :      19151.72 KBytes
  max/ min on nodes  :       2273.36       1718.86


 parallel 3D FFT for wavefunctions:
    minimum data exchange during FFTs selected (reduces bandwidth)
 parallel 3D FFT for charge:
    minimum data exchange during FFTs selected (reduces bandwidth)


 total amount of memory used by VASP MPI-rank0    76389. kBytes
=======================================================================

   base      :      30000. kBytes
   nonlr-proj:       6783. kBytes
   fftplans  :       2897. kBytes
   grid      :       8440. kBytes
   one-center:        294. kBytes
   wavefun   :      27975. kBytes
 
     INWAV:  cpu time    0.0000: real time    0.0002
 Broyden mixing: mesh for mixing (old mesh)
   NGX = 21   NGY = 25   NGZ = 35
  (NGX  = 84   NGY  =100   NGZ  =144)
  gives a total of  18375 points

 initial charge density was supplied:
 charge density of overlapping atoms calculated
 number of electron     225.0000000 magnetization      21.0000000
 keeping initial charge density in first step


--------------------------------------------------------------------------------------------------------


 Maximum index for non-local projection operator         1093
 Maximum index for augmentation-charges         1818 (set IRDMAX)


--------------------------------------------------------------------------------------------------------


 First call to EWALD:  gamma=   0.251
 Maximum number of real-space cells 3x 3x 2
 Maximum number of reciprocal cells 2x 3x 4

    FEWALD:  cpu time    0.0026: real time    0.0033


--------------------------------------- Iteration      1(   1)  ---------------------------------------


    POTLOK:  cpu time    0.0773: real time    0.0786
    SETDIJ:  cpu time    0.0158: real time    0.0161
atom =   1  type =  1  l = 0
 
 onsite density matrix
 
spin component  1
 
  1.0989
 
spin component  2
 
  1.0989
 
 occupancies and eigenvectors
 
  o =  1.0989  v =  1.0000  0.0000      0.0000  0.0000
  o =  1.0989  v =  0.0000  1.0000      0.0000  0.0000
atom =   2  type =  1  l = 0
 
 onsite density matrix
 
spin component  1
 
  1.0989
 
spin component  2
 
  1.0989
 
 occupancies and eigenvectors
 
  o =  1.0989  v =  1.0000  0.0000      0.0000  0.0000
  o =  1.0989  v =  0.0000  1.0000      0.0000  0.0000
atom =   3  type =  1  l = 0
 
 onsite density matrix
 
spin component  1
 
  1.0989
 
spin component  2
 
  1.0989
 
 occupancies and eigenvectors
 
  o =  1.0989  v =  1.0000  0.0000      0.0000  0.0000
  o =  1.0989  v =  0.0000  1.0000      0.0000  0.0000
atom =   4  type =  1  l = 0
 
 onsite density matrix
 
spin component  1
 
  1.0989
 
spin component  2
 
  1.0989
 
 occupancies and eigenvectors
 
  o =  1.0989  v =  1.0000  0.0000      0.0000  0.0000
  o =  1.0989  v =  0.0000  1.0000      0.0000  0.0000
atom =   5  type =  1  l = 0
 
 onsite density matrix
 
spin component  1
 
  1.0989
 
spin component  2
 
  1.0989
 
 occupancies and eigenvectors
 
  o =  1.0989  v =  1.0000  0.0000      0.0000  0.0000
  o =  1.0989  v =  0.0000  1.0000      0.0000  0.0000
atom =   6  type =  1  l = 0
 
 onsite density matrix
 
spin component  1
 
  1.0989
 
spin component  2
 
  1.0989
 
 occupancies and eigenvectors
 
  o =  1.0989  v =  1.0000  0.0000      0.0000  0.0000
  o =  1.0989  v =  0.0000  1.0000      0.0000  0.0000
atom =   7  type =  2  l = 2
 
 onsite density matrix
 
spin component  1
 
  0.8272  0.0000  0.0000  0.0000  0.0000
  0.0000  0.8272  0.0000  0.0000  0.0000
  0.0000  0.0000  0.8272  0.0000  0.0000
  0.0000  0.0000  0.0000  0.8272  0.0000
  0.0000  0.0000  0.0000  0.0000  0.8272
 
spin component  2
 
  0.2256  0.0000  0.0000  0.0000  0.0000
  0.0000  0.2256  0.0000  0.0000  0.0000
  0.0000  0.0000  0.2256  0.0000  0.0000
  0.0000  0.0000  0.0000  0.2256  0.0000
  0.0000  0.0000  0.0000  0.0000  0.2256
 
 occupancies and eigenvectors
 
  o =  0.2256  v =  0.0000  0.0000  0.0000  0.0000  0.0000  0.0000  0.0000  1.0000  0.0000  0.0000      0.0000  0.0000  0.0000  0.0000  0.0000  0.0000  0.0000  0.0000  0.0000  0.0000
  o =  0.2256  v =  0.0000  0.0000  0.0000  0.0000  0.0000  1.0000  0.0000  0.0000  0.0000  0.0000      0.0000  0.0000  0.0000  0.0000  0.0000  0.0000  0.0000  0.0000  0.0000  0.0000
  o =  0.2256  v =  0.0000  0.0000  0.0000  0.0000  0.0000  0.0000  1.0000  0.0000  0.0000  0.0000      0.0000  0.0000  0.0000  0.0000  0.0000  0.0000  0.0000  0.0000  0.0000  0.0000
  o =  0.2256  v =  0.0000  0.0000  0.0000  0.0000  0.0000  0.0000  0.0000  0.0000  1.0000  0.0000      0.0000  0.0000  0.0000  0.0000  0.0000  0.0000  0.0000  0.0000  0.0000  0.0000
  o =  0.2256  v =  0.0000  0.0000  0.0000  0.0000  0.0000  0.0000  0.0000  0.0000  0.0000  1.0000      0.0000  0.0000  0.0000  0.0000  0.0000  0.0000  0.0000  0.0000  0.0000  0.0000
  o =  0.8272  v =  0.0000  1.0000  0.0000  0.0000  0.0000  0.0000  0.0000  0.0000  0.0000  0.0000      0.0000  0.0000  0.0000  0.0000  0.0000  0.0000  0.0000  0.0000  0.0000  0.0000
  o =  0.8272  v =  0.0000  0.0000  1.0000  0.0000  0.0000  0.0000  0.0000  0.0000  0.0000  0.0000      0.0000  0.0000  0.0000  0.0000  0.0000  0.0000  0.0000  0.0000  0.0000  0.0000
  o =  0.8272  v =  1.0000  0.0000  0.0000  0.0000  0.0000  0.0000  0.0000  0.0000  0.0000  0.0000      0.0000  0.0000  0.0000  0.0000  0.0000  0.0000  0.0000  0.0000  0.0000  0.0000
  o =  0.8272  v =  0.0000  0.0000  0.0000  1.0000  0.0000  0.0000  0.0000  0.0000  0.0000  0.0000      0.0000  0.0000  0.0000  0.0000  0.0000  0.0000  0.0000  0.0000  0.0000  0.0000
  o =  0.8272  v =  0.0000  0.0000  0.0000  0.0000  1.0000  0.0000  0.0000  0.0000  0.0000  0.0000      0.0000  0.0000  0.0000  0.0000  0.0000  0.0000  0.0000  0.0000  0.0000  0.0000
atom =   8  type =  2  l = 2
 
 onsite density matrix
 
spin component  1
 
  0.8272  0.0000  0.0000  0.0000  0.0000
  0.0000  0.8272  0.0000  0.0000  0.0000
  0.0000  0.0000  0.8272  0.0000  0.0000
  0.0000  0.0000  0.0000  0.8272  0.0000
  0.0000  0.0000  0.0000  0.0000  0.8272
 
spin component  2
 
  0.2256  0.0000  0.0000  0.0000  0.0000
  0.0000  0.2256  0.0000  0.0000  0.0000
  0.0000  0.0000  0.2256  0.0000  0.0000
  0.0000  0.0000  0.0000  0.2256  0.0000
  0.0000  0.0000  0.0000  0.0000  0.2256
 
 occupancies and eigenvectors
 
  o =  0.2256  v =  0.0000  0.0000  0.0000  0.0000  0.0000  0.0000  0.0000  1.0000  0.0000  0.0000      0.0000  0.0000  0.0000  0.0000  0.0000  0.0000  0.0000  0.0000  0.0000  0.0000
  o =  0.2256  v =  0.0000  0.0000  0.0000  0.0000  0.0000  1.0000  0.0000  0.0000  0.0000  0.0000      0.0000  0.0000  0.0000  0.0000  0.0000  0.0000  0.0000  0.0000  0.0000  0.0000
  o =  0.2256  v =  0.0000  0.0000  0.0000  0.0000  0.0000  0.0000  1.0000  0.0000  0.0000  0.0000      0.0000  0.0000  0.0000  0.0000  0.0000  0.0000  0.0000  0.0000  0.0000  0.0000
  o =  0.2256  v =  0.0000  0.0000  0.0000  0.0000  0.0000  0.0000  0.0000  0.0000  1.0000  0.0000      0.0000  0.0000  0.0000  0.0000  0.0000  0.0000  0.0000  0.0000  0.0000  0.0000
  o =  0.2256  v =  0.0000  0.0000  0.0000  0.0000  0.0000  0.0000  0.0000  0.0000  0.0000  1.0000      0.0000  0.0000  0.0000  0.0000  0.0000  0.0000  0.0000  0.0000  0.0000  0.0000
  o =  0.8272  v =  0.0000  1.0000  0.0000  0.0000  0.0000  0.0000  0.0000  0.0000  0.0000  0.0000      0.0000  0.0000  0.0000  0.0000  0.0000  0.0000  0.0000  0.0000  0.0000  0.0000
  o =  0.8272  v =  0.0000  0.0000  1.0000  0.0000  0.0000  0.0000  0.0000  0.0000  0.0000  0.0000      0.0000  0.0000  0.0000  0.0000  0.0000  0.0000  0.0000  0.0000  0.0000  0.0000
  o =  0.8272  v =  1.0000  0.0000  0.0000  0.0000  0.0000  0.0000  0.0000  0.0000  0.0000  0.0000      0.0000  0.0000  0.0000  0.0000  0.0000  0.0000  0.0000  0.0000  0.0000  0.0000
  o =  0.8272  v =  0.0000  0.0000  0.0000  1.0000  0.0000  0.0000  0.0000  0.0000  0.0000  0.0000      0.0000  0.0000  0.0000  0.0000  0.0000  0.0000  0.0000  0.0000  0.0000  0.0000
  o =  0.8272  v =  0.0000  0.0000  0.0000  0.0000  1.0000  0.0000  0.0000  0.0000  0.0000  0.0000      0.0000  0.0000  0.0000  0.0000  0.0000  0.0000  0.0000  0.0000  0.0000  0.0000
atom =   9  type =  2  l = 2
 
 onsite density matrix
 
spin component  1
 
  0.8272  0.0000  0.0000  0.0000  0.0000
  0.0000  0.8272  0.0000  0.0000  0.0000
  0.0000  0.0000  0.8272  0.0000  0.0000
  0.0000  0.0000  0.0000  0.8272  0.0000
  0.0000  0.0000  0.0000  0.0000  0.8272
 
spin component  2
 
  0.2256  0.0000  0.0000  0.0000  0.0000
  0.0000  0.2256  0.0000  0.0000  0.0000
  0.0000  0.0000  0.2256  0.0000  0.0000
  0.0000  0.0000  0.0000  0.2256  0.0000
  0.0000  0.0000  0.0000  0.0000  0.2256
 
 occupancies and eigenvectors
 
  o =  0.2256  v =  0.0000  0.0000  0.0000  0.0000  0.0000  0.0000  0.0000  1.0000  0.0000  0.0000      0.0000  0.0000  0.0000  0.0000  0.0000  0.0000  0.0000  0.0000  0.0000  0.0000
  o =  0.2256  v =  0.0000  0.0000  0.0000  0.0000  0.0000  1.0000  0.0000  0.0000  0.0000  0.0000      0.0000  0.0000  0.0000  0.0000  0.0000  0.0000  0.0000  0.0000  0.0000  0.0000
  o =  0.2256  v =  0.0000  0.0000  0.0000  0.0000  0.0000  0.0000  1.0000  0.0000  0.0000  0.0000      0.0000  0.0000  0.0000  0.0000  0.0000  0.0000  0.0000  0.0000  0.0000  0.0000
  o =  0.2256  v =  0.0000  0.0000  0.0000  0.0000  0.0000  0.0000  0.0000  0.0000  1.0000  0.0000      0.0000  0.0000  0.0000  0.0000  0.0000  0.0000  0.0000  0.0000  0.0000  0.0000
  o =  0.2256  v =  0.0000  0.0000  0.0000  0.0000  0.0000  0.0000  0.0000  0.0000  0.0000  1.0000      0.0000  0.0000  0.0000  0.0000  0.0000  0.0000  0.0000  0.0000  0.0000  0.0000
  o =  0.8272  v =  0.0000  1.0000  0.0000  0.0000  0.0000  0.0000  0.0000  0.0000  0.0000  0.0000      0.0000  0.0000  0.0000  0.0000  0.0000  0.0000  0.0000  0.0000  0.0000  0.0000
  o =  0.8272  v =  0.0000  0.0000  1.0000  0.0000  0.0000  0.0000  0.0000  0.0000  0.0000  0.0000      0.0000  0.0000  0.0000  0.0000  0.0000  0.0000  0.0000  0.0000  0.0000  0.0000
  o =  0.8272  v =  1.0000  0.0000  0.0000  0.0000  0.0000  0.0000  0.0000  0.0000  0.0000  0.0000      0.0000  0.0000  0.0000  0.0000  0.0000  0.0000  0.0000  0.0000  0.0000  0.0000
  o =  0.8272  v =  0.0000  0.0000  0.0000  1.0000  0.0000  0.0000  0.0000  0.0000  0.0000  0.0000      0.0000  0.0000  0.0000  0.0000  0.0000  0.0000  0.0000  0.0000  0.0000  0.0000
  o =  0.8272  v =  0.0000  0.0000  0.0000  0.0000  1.0000  0.0000  0.0000  0.0000  0.0000  0.0000      0.0000  0.0000  0.0000  0.0000  0.0000  0.0000  0.0000  0.0000  0.0000  0.0000
atom =  10  type =  3  l = 2
 
 onsite density matrix
 
spin component  1
 
  1.1008  0.0000  0.0000  0.0000  0.0000
  0.0000  1.1008  0.0000  0.0000  0.0000
  0.0000  0.0000  1.1008  0.0000  0.0000
  0.0000  0.0000  0.0000  1.1008  0.0000
  0.0000  0.0000  0.0000  0.0000  1.1008
 
spin component  2
 
  0.5927  0.0000  0.0000  0.0000  0.0000
  0.0000  0.5927  0.0000  0.0000  0.0000
  0.0000  0.0000  0.5927  0.0000  0.0000
  0.0000  0.0000  0.0000  0.5927  0.0000
  0.0000  0.0000  0.0000  0.0000  0.5927
 
 occupancies and eigenvectors
 
  o =  0.5927  v =  0.0000  0.0000  0.0000  0.0000  0.0000  1.0000  0.0000  0.0000  0.0000  0.0000      0.0000  0.0000  0.0000  0.0000  0.0000  0.0000  0.0000  0.0000  0.0000  0.0000
  o =  0.5927  v =  0.0000  0.0000  0.0000  0.0000  0.0000  0.0000  1.0000  0.0000  0.0000  0.0000      0.0000  0.0000  0.0000  0.0000  0.0000  0.0000  0.0000  0.0000  0.0000  0.0000
  o =  0.5927  v =  0.0000  0.0000  0.0000  0.0000  0.0000  0.0000  0.0000  1.0000  0.0000  0.0000      0.0000  0.0000  0.0000  0.0000  0.0000  0.0000  0.0000  0.0000  0.0000  0.0000
  o =  0.5927  v =  0.0000  0.0000  0.0000  0.0000  0.0000  0.0000  0.0000  0.0000  1.0000  0.0000      0.0000  0.0000  0.0000  0.0000  0.0000  0.0000  0.0000  0.0000  0.0000  0.0000
  o =  0.5927  v =  0.0000  0.0000  0.0000  0.0000  0.0000  0.0000  0.0000  0.0000  0.0000  1.0000      0.0000  0.0000  0.0000  0.0000  0.0000  0.0000  0.0000  0.0000  0.0000  0.0000
  o =  1.1008  v =  1.0000  0.0000  0.0000  0.0000  0.0000  0.0000  0.0000  0.0000  0.0000  0.0000      0.0000  0.0000  0.0000  0.0000  0.0000  0.0000  0.0000  0.0000  0.0000  0.0000
  o =  1.1008  v =  0.0000  1.0000  0.0000  0.0000  0.0000  0.0000  0.0000  0.0000  0.0000  0.0000      0.0000  0.0000  0.0000  0.0000  0.0000  0.0000  0.0000  0.0000  0.0000  0.0000
  o =  1.1008  v =  0.0000  0.0000  1.0000  0.0000  0.0000  0.0000  0.0000  0.0000  0.0000  0.0000      0.0000  0.0000  0.0000  0.0000  0.0000  0.0000  0.0000  0.0000  0.0000  0.0000
  o =  1.1008  v =  0.0000  0.0000  0.0000  1.0000  0.0000  0.0000  0.0000  0.0000  0.0000  0.0000      0.0000  0.0000  0.0000  0.0000  0.0000  0.0000  0.0000  0.0000  0.0000  0.0000
  o =  1.1008  v =  0.0000  0.0000  0.0000  0.0000  1.0000  0.0000  0.0000  0.0000  0.0000  0.0000      0.0000  0.0000  0.0000  0.0000  0.0000  0.0000  0.0000  0.0000  0.0000  0.0000
atom =  11  type =  3  l = 2
 
 onsite density matrix
 
spin component  1
 
  1.1008  0.0000  0.0000  0.0000  0.0000
  0.0000  1.1008  0.0000  0.0000  0.0000
  0.0000  0.0000  1.1008  0.0000  0.0000
  0.0000  0.0000  0.0000  1.1008  0.0000
  0.0000  0.0000  0.0000  0.0000  1.1008
 
spin component  2
 
  0.5927  0.0000  0.0000  0.0000  0.0000
  0.0000  0.5927  0.0000  0.0000  0.0000
  0.0000  0.0000  0.5927  0.0000  0.0000
  0.0000  0.0000  0.0000  0.5927  0.0000
  0.0000  0.0000  0.0000  0.0000  0.5927
 
 occupancies and eigenvectors
 
  o =  0.5927  v =  0.0000  0.0000  0.0000  0.0000  0.0000  1.0000  0.0000  0.0000  0.0000  0.0000      0.0000  0.0000  0.0000  0.0000  0.0000  0.0000  0.0000  0.0000  0.0000  0.0000
  o =  0.5927  v =  0.0000  0.0000  0.0000  0.0000  0.0000  0.0000  1.0000  0.0000  0.0000  0.0000      0.0000  0.0000  0.0000  0.0000  0.0000  0.0000  0.0000  0.0000  0.0000  0.0000
  o =  0.5927  v =  0.0000  0.0000  0.0000  0.0000  0.0000  0.0000  0.0000  1.0000  0.0000  0.0000      0.0000  0.0000  0.0000  0.0000  0.0000  0.0000  0.0000  0.0000  0.0000  0.0000
  o =  0.5927  v =  0.0000  0.0000  0.0000  0.0000  0.0000  0.0000  0.0000  0.0000  1.0000  0.0000      0.0000  0.0000  0.0000  0.0000  0.0000  0.0000  0.0000  0.0000  0.0000  0.0000
  o =  0.5927  v =  0.0000  0.0000  0.0000  0.0000  0.0000  0.0000  0.0000  0.0000  0.0000  1.0000      0.0000  0.0000  0.0000  0.0000  0.0000  0.0000  0.0000  0.0000  0.0000  0.0000
  o =  1.1008  v =  1.0000  0.0000  0.0000  0.0000  0.0000  0.0000  0.0000  0.0000  0.0000  0.0000      0.0000  0.0000  0.0000  0.0000  0.0000  0.0000  0.0000  0.0000  0.0000  0.0000
  o =  1.1008  v =  0.0000  1.0000  0.0000  0.0000  0.0000  0.0000  0.0000  0.0000  0.0000  0.0000      0.0000  0.0000  0.0000  0.0000  0.0000  0.0000  0.0000  0.0000  0.0000  0.0000
  o =  1.1008  v =  0.0000  0.0000  1.0000  0.0000  0.0000  0.0000  0.0000  0.0000  0.0000  0.0000      0.0000  0.0000  0.0000  0.0000  0.0000  0.0000  0.0000  0.0000  0.0000  0.0000
  o =  1.1008  v =  0.0000  0.0000  0.0000  1.0000  0.0000  0.0000  0.0000  0.0000  0.0000  0.0000      0.0000  0.0000  0.0000  0.0000  0.0000  0.0000  0.0000  0.0000  0.0000  0.0000
  o =  1.1008  v =  0.0000  0.0000  0.0000  0.0000  1.0000  0.0000  0.0000  0.0000  0.0000  0.0000      0.0000  0.0000  0.0000  0.0000  0.0000  0.0000  0.0000  0.0000  0.0000  0.0000
atom =  12  type =  3  l = 2
 
 onsite density matrix
 
spin component  1
 
  1.1008  0.0000  0.0000  0.0000  0.0000
  0.0000  1.1008  0.0000  0.0000  0.0000
  0.0000  0.0000  1.1008  0.0000  0.0000
  0.0000  0.0000  0.0000  1.1008  0.0000
  0.0000  0.0000  0.0000  0.0000  1.1008
 
spin component  2
 
  0.5927  0.0000  0.0000  0.0000  0.0000
  0.0000  0.5927  0.0000  0.0000  0.0000
  0.0000  0.0000  0.5927  0.0000  0.0000
  0.0000  0.0000  0.0000  0.5927  0.0000
  0.0000  0.0000  0.0000  0.0000  0.5927
 
 occupancies and eigenvectors
 
  o =  0.5927  v =  0.0000  0.0000  0.0000  0.0000  0.0000  1.0000  0.0000  0.0000  0.0000  0.0000      0.0000  0.0000  0.0000  0.0000  0.0000  0.0000  0.0000  0.0000  0.0000  0.0000
  o =  0.5927  v =  0.0000  0.0000  0.0000  0.0000  0.0000  0.0000  1.0000  0.0000  0.0000  0.0000      0.0000  0.0000  0.0000  0.0000  0.0000  0.0000  0.0000  0.0000  0.0000  0.0000
  o =  0.5927  v =  0.0000  0.0000  0.0000  0.0000  0.0000  0.0000  0.0000  1.0000  0.0000  0.0000      0.0000  0.0000  0.0000  0.0000  0.0000  0.0000  0.0000  0.0000  0.0000  0.0000
  o =  0.5927  v =  0.0000  0.0000  0.0000  0.0000  0.0000  0.0000  0.0000  0.0000  1.0000  0.0000      0.0000  0.0000  0.0000  0.0000  0.0000  0.0000  0.0000  0.0000  0.0000  0.0000
  o =  0.5927  v =  0.0000  0.0000  0.0000  0.0000  0.0000  0.0000  0.0000  0.0000  0.0000  1.0000      0.0000  0.0000  0.0000  0.0000  0.0000  0.0000  0.0000  0.0000  0.0000  0.0000
  o =  1.1008  v =  1.0000  0.0000  0.0000  0.0000  0.0000  0.0000  0.0000  0.0000  0.0000  0.0000      0.0000  0.0000  0.0000  0.0000  0.0000  0.0000  0.0000  0.0000  0.0000  0.0000
  o =  1.1008  v =  0.0000  1.0000  0.0000  0.0000  0.0000  0.0000  0.0000  0.0000  0.0000  0.0000      0.0000  0.0000  0.0000  0.0000  0.0000  0.0000  0.0000  0.0000  0.0000  0.0000
  o =  1.1008  v =  0.0000  0.0000  1.0000  0.0000  0.0000  0.0000  0.0000  0.0000  0.0000  0.0000      0.0000  0.0000  0.0000  0.0000  0.0000  0.0000  0.0000  0.0000  0.0000  0.0000
  o =  1.1008  v =  0.0000  0.0000  0.0000  1.0000  0.0000  0.0000  0.0000  0.0000  0.0000  0.0000      0.0000  0.0000  0.0000  0.0000  0.0000  0.0000  0.0000  0.0000  0.0000  0.0000
  o =  1.1008  v =  0.0000  0.0000  0.0000  0.0000  1.0000  0.0000  0.0000  0.0000  0.0000  0.0000      0.0000  0.0000  0.0000  0.0000  0.0000  0.0000  0.0000  0.0000  0.0000  0.0000
atom =  13  type =  4  l = 0
 
 onsite density matrix
 
spin component  1
 
  0.8190
 
spin component  2
 
  0.8190
 
 occupancies and eigenvectors
 
  o =  0.8190  v =  1.0000  0.0000      0.0000  0.0000
  o =  0.8190  v =  0.0000  1.0000      0.0000  0.0000
atom =  14  type =  4  l = 0
 
 onsite density matrix
 
spin component  1
 
  0.8190
 
spin component  2
 
  0.8190
 
 occupancies and eigenvectors
 
  o =  0.8190  v =  1.0000  0.0000      0.0000  0.0000
  o =  0.8190  v =  0.0000  1.0000      0.0000  0.0000
atom =  15  type =  4  l = 0
 
 onsite density matrix
 
spin component  1
 
  0.8190
 
spin component  2
 
  0.8190
 
 occupancies and eigenvectors
 
  o =  0.8190  v =  1.0000  0.0000      0.0000  0.0000
  o =  0.8190  v =  0.0000  1.0000      0.0000  0.0000
atom =  16  type =  4  l = 0
 
 onsite density matrix
 
spin component  1
 
  0.8190
 
spin component  2
 
  0.8190
 
 occupancies and eigenvectors
 
  o =  0.8190  v =  1.0000  0.0000      0.0000  0.0000
  o =  0.8190  v =  0.0000  1.0000      0.0000  0.0000
atom =  17  type =  4  l = 0
 
 onsite density matrix
 
spin component  1
 
  0.8190
 
spin component  2
 
  0.8190
 
 occupancies and eigenvectors
 
  o =  0.8190  v =  1.0000  0.0000      0.0000  0.0000
  o =  0.8190  v =  0.0000  1.0000      0.0000  0.0000
atom =  18  type =  4  l = 0
 
 onsite density matrix
 
spin component  1
 
  0.8190
 
spin component  2
 
  0.8190
 
 occupancies and eigenvectors
 
  o =  0.8190  v =  1.0000  0.0000      0.0000  0.0000
  o =  0.8190  v =  0.0000  1.0000      0.0000  0.0000
atom =  19  type =  4  l = 0
 
 onsite density matrix
 
spin component  1
 
  0.8190
 
spin component  2
 
  0.8190
 
 occupancies and eigenvectors
 
  o =  0.8190  v =  1.0000  0.0000      0.0000  0.0000
  o =  0.8190  v =  0.0000  1.0000      0.0000  0.0000
atom =  20  type =  4  l = 0
 
 onsite density matrix
 
spin component  1
 
  0.8190
 
spin component  2
 
  0.8190
 
 occupancies and eigenvectors
 
  o =  0.8190  v =  1.0000  0.0000      0.0000  0.0000
  o =  0.8190  v =  0.0000  1.0000      0.0000  0.0000
atom =  21  type =  4  l = 0
 
 onsite density matrix
 
spin component  1
 
  0.8190
 
spin component  2
 
  0.8190
 
 occupancies and eigenvectors
 
  o =  0.8190  v =  1.0000  0.0000      0.0000  0.0000
  o =  0.8190  v =  0.0000  1.0000      0.0000  0.0000
atom =  22  type =  4  l = 0
 
 onsite density matrix
 
spin component  1
 
  0.8190
 
spin component  2
 
  0.8190
 
 occupancies and eigenvectors
 
  o =  0.8190  v =  1.0000  0.0000      0.0000  0.0000
  o =  0.8190  v =  0.0000  1.0000      0.0000  0.0000
atom =  23  type =  4  l = 0
 
 onsite density matrix
 
spin component  1
 
  0.8190
 
spin component  2
 
  0.8190
 
 occupancies and eigenvectors
 
  o =  0.8190  v =  1.0000  0.0000      0.0000  0.0000
  o =  0.8190  v =  0.0000  1.0000      0.0000  0.0000
atom =  24  type =  4  l = 0
 
 onsite density matrix
 
spin component  1
 
  0.8190
 
spin component  2
 
  0.8190
 
 occupancies and eigenvectors
 
  o =  0.8190  v =  1.0000  0.0000      0.0000  0.0000
  o =  0.8190  v =  0.0000  1.0000      0.0000  0.0000
atom =  25  type =  4  l = 0
 
 onsite density matrix
 
spin component  1
 
  0.8190
 
spin component  2
 
  0.8190
 
 occupancies and eigenvectors
 
  o =  0.8190  v =  1.0000  0.0000      0.0000  0.0000
  o =  0.8190  v =  0.0000  1.0000      0.0000  0.0000
atom =  26  type =  4  l = 0
 
 onsite density matrix
 
spin component  1
 
  0.8190
 
spin component  2
 
  0.8190
 
 occupancies and eigenvectors
 
  o =  0.8190  v =  1.0000  0.0000      0.0000  0.0000
  o =  0.8190  v =  0.0000  1.0000      0.0000  0.0000
atom =  27  type =  4  l = 0
 
 onsite density matrix
 
spin component  1
 
  0.8190
 
spin component  2
 
  0.8190
 
 occupancies and eigenvectors
 
  o =  0.8190  v =  1.0000  0.0000      0.0000  0.0000
  o =  0.8190  v =  0.0000  1.0000      0.0000  0.0000
atom =  28  type =  4  l = 0
 
 onsite density matrix
 
spin component  1
 
  0.8190
 
spin component  2
 
  0.8190
 
 occupancies and eigenvectors
 
  o =  0.8190  v =  1.0000  0.0000      0.0000  0.0000
  o =  0.8190  v =  0.0000  1.0000      0.0000  0.0000
atom =  29  type =  4  l = 0
 
 onsite density matrix
 
spin component  1
 
  0.8190
 
spin component  2
 
  0.8190
 
 occupancies and eigenvectors
 
  o =  0.8190  v =  1.0000  0.0000      0.0000  0.0000
  o =  0.8190  v =  0.0000  1.0000      0.0000  0.0000
atom =  30  type =  4  l = 0
 
 onsite density matrix
 
spin component  1
 
  0.8190
 
spin component  2
 
  0.8190
 
 occupancies and eigenvectors
 
  o =  0.8190  v =  1.0000  0.0000      0.0000  0.0000
  o =  0.8190  v =  0.0000  1.0000      0.0000  0.0000
     EDDAV:  cpu time    4.1270: real time    4.1499
 BZINTS: Fermi energy: 32.053552;225.000000 electrons
         Band energy:3396.055927;  BLOECHL correction: -0.184521
       DOS:  cpu time    0.0306: real time    0.0317
    --------------------------------------------
      LOOP:  cpu time    4.2507: real time    4.2763

 eigenvalue-minimisations  :  7506
 total energy-change (2. order) : 0.3589460E+04  (-0.7835212E+04)
 number of electron     225.0000000 magnetization      21.0000000
 augmentation part      225.0000000 magnetization      21.0000000

 Free energy of the ion-electron system (eV)
  ---------------------------------------------------
  alpha Z        PSCENC =       983.52265144
  Ewald energy   TEWEN  =    -15472.04948418
  -Hartree energ DENC   =     -3443.94903433
  -exchange      EXHF   =         0.00000000
  -V(xc)+E(xc)   XCENC  =       754.20461643
  PAW double counting   =     14201.63522633   -14291.52419254
  entropy T*S    EENTRO =         0.00000000
  eigenvalues    EBANDS =      3396.05592732
  atomic energy  EATOM  =     17461.56381371
  Solvation  Ediel_sol  =         0.00000000
  ---------------------------------------------------
  free energy    TOTEN  =      3589.45952418 eV

  energy without entropy =     3589.45952418  energy(sigma->0) =     3589.45952418


--------------------------------------------------------------------------------------------------------




--------------------------------------- Iteration      1(   2)  ---------------------------------------


     EDDAV:  cpu time    4.2242: real time    4.2430
 BZINTS: Fermi energy: 16.558559;225.000000 electrons
         Band energy:1056.212466;  BLOECHL correction: -0.039880
       DOS:  cpu time    0.0355: real time    0.0356
    --------------------------------------------
      LOOP:  cpu time    4.2597: real time    4.2785

 eigenvalue-minimisations  :  7784
 total energy-change (2. order) :-0.2339843E+04  (-0.2104516E+04)
 number of electron     225.0000000 magnetization      21.0000000
 augmentation part      225.0000000 magnetization      21.0000000

 Free energy of the ion-electron system (eV)
  ---------------------------------------------------
  alpha Z        PSCENC =       983.52265144
  Ewald energy   TEWEN  =    -15472.04948418
  -Hartree energ DENC   =     -3443.94903433
  -exchange      EXHF   =         0.00000000
  -V(xc)+E(xc)   XCENC  =       754.20461643
  PAW double counting   =     14201.63522633   -14291.52419254
  entropy T*S    EENTRO =         0.00000000
  eigenvalues    EBANDS =      1056.21246627
  atomic energy  EATOM  =     17461.56381371
  Solvation  Ediel_sol  =         0.00000000
  ---------------------------------------------------
  free energy    TOTEN  =      1249.61606313 eV

  energy without entropy =     1249.61606313  energy(sigma->0) =     1249.61606313


--------------------------------------------------------------------------------------------------------




--------------------------------------- Iteration      1(   3)  ---------------------------------------


     EDDAV:  cpu time    4.2018: real time    4.2238
 BZINTS: Fermi energy: 12.244906;225.000000 electrons
         Band energy:  83.971482;  BLOECHL correction: -0.036368
       DOS:  cpu time    0.0341: real time    0.0342
    --------------------------------------------
      LOOP:  cpu time    4.2359: real time    4.2580

 eigenvalue-minimisations  :  7720
 total energy-change (2. order) :-0.9722410E+03  (-0.8699696E+03)
 number of electron     225.0000000 magnetization      21.0000000
 augmentation part      225.0000000 magnetization      21.0000000

 Free energy of the ion-electron system (eV)
  ---------------------------------------------------
  alpha Z        PSCENC =       983.52265144
  Ewald energy   TEWEN  =    -15472.04948418
  -Hartree energ DENC   =     -3443.94903433
  -exchange      EXHF   =         0.00000000
  -V(xc)+E(xc)   XCENC  =       754.20461643
  PAW double counting   =     14201.63522633   -14291.52419254
  entropy T*S    EENTRO =         0.00000000
  eigenvalues    EBANDS =        83.97148155
  atomic energy  EATOM  =     17461.56381371
  Solvation  Ediel_sol  =         0.00000000
  ---------------------------------------------------
  free energy    TOTEN  =       277.37507841 eV

  energy without entropy =      277.37507841  energy(sigma->0) =      277.37507841


--------------------------------------------------------------------------------------------------------




--------------------------------------- Iteration      1(   4)  ---------------------------------------


     EDDAV:  cpu time    5.6796: real time    5.7064
 BZINTS: Fermi energy: 11.566205;225.000000 electrons
         Band energy:-351.131527;  BLOECHL correction: -0.008881
       DOS:  cpu time    0.0335: real time    0.0336
    --------------------------------------------
      LOOP:  cpu time    5.7131: real time    5.7400

 eigenvalue-minimisations  : 11192
 total energy-change (2. order) :-0.4351030E+03  (-0.4097557E+03)
 number of electron     225.0000000 magnetization      21.0000000
 augmentation part      225.0000000 magnetization      21.0000000

 Free energy of the ion-electron system (eV)
  ---------------------------------------------------
  alpha Z        PSCENC =       983.52265144
  Ewald energy   TEWEN  =    -15472.04948418
  -Hartree energ DENC   =     -3443.94903433
  -exchange      EXHF   =         0.00000000
  -V(xc)+E(xc)   XCENC  =       754.20461643
  PAW double counting   =     14201.63522633   -14291.52419254
  entropy T*S    EENTRO =         0.00000000
  eigenvalues    EBANDS =      -351.13152715
  atomic energy  EATOM  =     17461.56381371
  Solvation  Ediel_sol  =         0.00000000
  ---------------------------------------------------
  free energy    TOTEN  =      -157.72793029 eV

  energy without entropy =     -157.72793029  energy(sigma->0) =     -157.72793029


--------------------------------------------------------------------------------------------------------




--------------------------------------- Iteration      1(   5)  ---------------------------------------


     EDDAV:  cpu time    6.4105: real time    6.4415
 BZINTS: Fermi energy: 11.089897;225.000000 electrons
         Band energy:-442.898333;  BLOECHL correction: -0.021142
       DOS:  cpu time    0.0314: real time    0.0314
    CHARGE:  cpu time    0.1785: real time    0.1793
    MIXING:  cpu time    0.0035: real time    0.0037
    --------------------------------------------
      LOOP:  cpu time    6.6239: real time    6.6561

 eigenvalue-minimisations  : 12872
 total energy-change (2. order) :-0.9176681E+02  (-0.8825485E+02)
 number of electron     224.9999958 magnetization      18.6692380
 augmentation part       28.6087139 magnetization      13.7420568

 Broyden mixing:
  rms(total) = 0.75836E+01    rms(broyden)= 0.75830E+01
  rms(prec ) = 0.87928E+01
  weight for this iteration     100.00

 Free energy of the ion-electron system (eV)
  ---------------------------------------------------
  alpha Z        PSCENC =       983.52265144
  Ewald energy   TEWEN  =    -15472.04948418
  -Hartree energ DENC   =     -3443.94903433
  -exchange      EXHF   =         0.00000000
  -V(xc)+E(xc)   XCENC  =       754.20461643
  PAW double counting   =     14201.63522633   -14291.52419254
  entropy T*S    EENTRO =         0.00000000
  eigenvalues    EBANDS =      -442.89833295
  atomic energy  EATOM  =     17461.56381371
  Solvation  Ediel_sol  =         0.00000000
  ---------------------------------------------------
  free energy    TOTEN  =      -249.49473609 eV

  energy without entropy =     -249.49473609  energy(sigma->0) =     -249.49473609


--------------------------------------------------------------------------------------------------------




--------------------------------------- Iteration      1(   6)  ---------------------------------------


    POTLOK:  cpu time    0.0733: real time    0.0757
    SETDIJ:  cpu time    0.0141: real time    0.0141
atom =   1  type =  1  l = 0
 
 onsite density matrix
 
spin component  1
 
  1.0562
 
spin component  2
 
  1.0562
 
 occupancies and eigenvectors
 
  o =  1.0562  v =  1.0000  0.0000      0.0000  0.0000
  o =  1.0562  v =  0.0000  1.0000      0.0000  0.0000
atom =   2  type =  1  l = 0
 
 onsite density matrix
 
spin component  1
 
  1.0561
 
spin component  2
 
  1.0562
 
 occupancies and eigenvectors
 
  o =  1.0561  v =  1.0000  0.0000      0.0000  0.0000
  o =  1.0562  v =  0.0000  1.0000      0.0000  0.0000
atom =   3  type =  1  l = 0
 
 onsite density matrix
 
spin component  1
 
  1.0559
 
spin component  2
 
  1.0565
 
 occupancies and eigenvectors
 
  o =  1.0559  v =  1.0000  0.0000      0.0000  0.0000
  o =  1.0565  v =  0.0000  1.0000      0.0000  0.0000
atom =   4  type =  1  l = 0
 
 onsite density matrix
 
spin component  1
 
  1.0561
 
spin component  2
 
  1.0562
 
 occupancies and eigenvectors
 
  o =  1.0561  v =  1.0000  0.0000      0.0000  0.0000
  o =  1.0562  v =  0.0000  1.0000      0.0000  0.0000
atom =   5  type =  1  l = 0
 
 onsite density matrix
 
spin component  1
 
  1.0562
 
spin component  2
 
  1.0562
 
 occupancies and eigenvectors
 
  o =  1.0562  v =  1.0000  0.0000      0.0000  0.0000
  o =  1.0562  v =  0.0000  1.0000      0.0000  0.0000
atom =   6  type =  1  l = 0
 
 onsite density matrix
 
spin component  1
 
  1.0574
 
spin component  2
 
  1.0576
 
 occupancies and eigenvectors
 
  o =  1.0574  v =  1.0000  0.0000      0.0000  0.0000
  o =  1.0576  v =  0.0000  1.0000      0.0000  0.0000
atom =   7  type =  2  l = 2
 
 onsite density matrix
 
spin component  1
 
  0.9466  0.0038 -0.0009 -0.0038  0.0000
  0.0038  0.9393 -0.0000 -0.0006  0.0043
 -0.0009 -0.0000  0.3324  0.0000  0.0000
 -0.0038 -0.0006  0.0000  0.9393  0.0043
  0.0000  0.0043  0.0000  0.0043  0.3924
 
spin component  2
 
  0.0312 -0.0031  0.0009  0.0031  0.0000
 -0.0031  0.0414  0.0001 -0.0001 -0.0029
  0.0009  0.0001  0.4609 -0.0001  0.0000
  0.0031 -0.0001 -0.0001  0.0414 -0.0029
  0.0000 -0.0029  0.0000 -0.0029  0.4155
 
 occupancies and eigenvectors
 
  o =  0.0296  v =  0.0000  0.0000  0.0000  0.0000  0.0000  0.9398  0.2416 -0.0020 -0.2416  0.0000      0.0000  0.0000  0.0000  0.0000  0.0000  0.0000  0.0000  0.0000  0.0000  0.0000
  o =  0.0412  v =  0.0000  0.0000  0.0000  0.0000  0.0000 -0.0000  0.7071 -0.0000  0.7071  0.0110      0.0000  0.0000  0.0000  0.0000  0.0000  0.0000  0.0000  0.0000  0.0000  0.0000
  o =  0.0431  v =  0.0000  0.0000  0.0000  0.0000  0.0000  0.3416 -0.6646 -0.0004  0.6646 -0.0000      0.0000  0.0000  0.0000  0.0000  0.0000  0.0000  0.0000  0.0000  0.0000  0.0000
  o =  0.3324  v = -0.0015 -0.0000 -1.0000  0.0000  0.0000  0.0000  0.0000  0.0000  0.0000  0.0000      0.0000  0.0000  0.0000  0.0000  0.0000  0.0000  0.0000  0.0000  0.0000  0.0000
  o =  0.3923  v =  0.0000 -0.0078  0.0000 -0.0078  0.9999  0.0000  0.0000  0.0000  0.0000  0.0000      0.0000  0.0000  0.0000  0.0000  0.0000  0.0000  0.0000  0.0000  0.0000  0.0000
  o =  0.4155  v =  0.0000  0.0000  0.0000  0.0000  0.0000 -0.0000 -0.0078 -0.0000 -0.0078  0.9999      0.0000  0.0000  0.0000  0.0000  0.0000  0.0000  0.0000  0.0000  0.0000  0.0000
  o =  0.4609  v =  0.0000  0.0000  0.0000  0.0000  0.0000 -0.0020 -0.0002 -1.0000  0.0002 -0.0000      0.0000  0.0000  0.0000  0.0000  0.0000  0.0000  0.0000  0.0000  0.0000  0.0000
  o =  0.9368  v = -0.4854  0.6182  0.0007 -0.6182  0.0000  0.0000  0.0000  0.0000  0.0000  0.0000      0.0000  0.0000  0.0000  0.0000  0.0000  0.0000  0.0000  0.0000  0.0000  0.0000
  o =  0.9388  v = -0.0000 -0.7071  0.0000 -0.7071 -0.0110  0.0000  0.0000  0.0000  0.0000  0.0000      0.0000  0.0000  0.0000  0.0000  0.0000  0.0000  0.0000  0.0000  0.0000  0.0000
  o =  0.9496  v =  0.8743  0.3433 -0.0013 -0.3433 -0.0000  0.0000  0.0000  0.0000  0.0000  0.0000      0.0000  0.0000  0.0000  0.0000  0.0000  0.0000  0.0000  0.0000  0.0000  0.0000
atom =   8  type =  2  l = 2
 
 onsite density matrix
 
spin component  1
 
  0.9464  0.0023 -0.0005 -0.0023  0.0000
  0.0023  0.9509  0.0006 -0.0028  0.0011
 -0.0005  0.0006  0.3395 -0.0006 -0.0000
 -0.0023 -0.0028 -0.0006  0.9509  0.0011
  0.0000  0.0011 -0.0000  0.0011  0.3556
 
spin component  2
 
  0.0386 -0.0018  0.0002  0.0018  0.0000
 -0.0018  0.0360 -0.0004  0.0016 -0.0007
  0.0002 -0.0004  0.4590  0.0004  0.0000
  0.0018  0.0016  0.0004  0.0360 -0.0007
  0.0000 -0.0007  0.0000 -0.0007  0.4496
 
 occupancies and eigenvectors
 
  o =  0.0332  v =  0.0000  0.0000  0.0000  0.0000  0.0000 -0.4269 -0.6394 -0.0009  0.6394 -0.0000      0.0000  0.0000  0.0000  0.0000  0.0000  0.0000  0.0000  0.0000  0.0000  0.0000
  o =  0.0376  v =  0.0000  0.0000  0.0000  0.0000  0.0000  0.0000  0.7071 -0.0000  0.7071  0.0022      0.0000  0.0000  0.0000  0.0000  0.0000  0.0000  0.0000  0.0000  0.0000  0.0000
  o =  0.0398  v =  0.0000  0.0000  0.0000  0.0000  0.0000  0.9043 -0.3019 -0.0011  0.3019 -0.0000      0.0000  0.0000  0.0000  0.0000  0.0000  0.0000  0.0000  0.0000  0.0000  0.0000
[...]
  0.000   0.002  -0.000   0.000   0.000   0.000  -0.000  -0.000  -0.000  -0.001   0.002   0.001   0.000  -0.000   0.000  -0.001
  0.000  -0.001  -0.000  -0.000   0.000   0.000   0.000   0.000   0.001  -0.001   0.001  -0.000   0.000  -0.000   0.000  -0.000
  0.000  -0.000  -0.000   0.000  -0.000   0.000  -0.000   0.000   0.000   0.000  -0.000   0.000   0.004   0.000  -0.000   0.000
 -0.000   0.000   0.000  -0.000   0.000   0.000  -0.000  -0.000  -0.000  -0.000   0.000   0.003   0.001   0.000  -0.000  -0.000
  0.000  -0.000   0.000  -0.000   0.000  -0.000   0.000   0.000   0.000   0.005  -0.001  -0.000   0.002  -0.000  -0.002   0.000
 -0.000   0.003   0.000   0.000  -0.000  -0.000  -0.000   0.000   0.006   0.001   0.000  -0.001   0.000  -0.002  -0.000  -0.000
  0.000  -0.001   0.000  -0.000   0.000  -0.000   0.000  -0.000   0.002   0.001   0.002   0.001  -0.000  -0.001  -0.000  -0.001
  0.000  -0.003   0.000  -0.000  -0.000  -0.000   0.000   0.000   0.000   0.001  -0.004  -0.001   0.000  -0.000  -0.000   0.001
 -0.000   0.001   0.000   0.000   0.000  -0.000  -0.000  -0.000  -0.002   0.001  -0.002   0.001  -0.000   0.001  -0.000   0.001
  0.000   0.000   0.000   0.000   0.000  -0.000   0.000  -0.000  -0.000  -0.000   0.000  -0.000  -0.007   0.000   0.000   0.000
  0.000  -0.000  -0.000  -0.000  -0.000  -0.000   0.000   0.000   0.000   0.000  -0.001  -0.005  -0.002  -0.000  -0.000   0.000


------------------------ aborting loop because EDIFF is reached ----------------------------------------


 


 total charge     
 
# of ion       s       p       d       f       tot
--------------------------------------------------
    1        2.000   5.698   0.493   0.190   8.381
    2        2.000   5.699   0.494   0.192   8.386
    3        2.000   5.701   0.491   0.193   8.384
    4        2.000   5.699   0.494   0.192   8.386
    5        2.000   5.698   0.493   0.190   8.381
    6        2.000   5.697   0.485   0.187   8.369
    7        0.327   0.509   4.868   0.000   5.703
    8        0.350   0.552   4.866   0.000   5.768
    9        0.350   0.552   4.866   0.000   5.768
   10        0.398   0.574   8.320   0.000   9.291
   11        0.421   0.625   8.326   0.000   9.372
   12        0.398   0.574   8.320   0.000   9.291
   13        1.564   3.454   0.000   0.000   5.018
   14        1.561   3.456   0.000   0.000   5.017
   15        1.561   3.471   0.000   0.000   5.032
   16        1.561   3.456   0.000   0.000   5.017
   17        1.564   3.454   0.000   0.000   5.018
   18        1.557   3.450   0.000   0.000   5.007
   19        1.564   3.460   0.000   0.000   5.025
   20        1.564   3.460   0.000   0.000   5.025
   21        1.563   3.456   0.000   0.000   5.018
   22        1.559   3.451   0.000   0.000   5.010
   23        1.559   3.451   0.000   0.000   5.010
   24        1.563   3.456   0.000   0.000   5.018
   25        1.562   3.454   0.000   0.000   5.017
   26        1.563   3.458   0.000   0.000   5.021
   27        1.563   3.457   0.000   0.000   5.021
   28        1.562   3.454   0.000   0.000   5.017
   29        1.559   3.451   0.000   0.000   5.009
   30        1.559   3.451   0.000   0.000   5.009
--------------------------------------------------
tot         42.352  99.777  42.515   1.144 185.788

 


 magnetization (x)
 
# of ion       s       p       d       f       tot
--------------------------------------------------
    1        0.000   0.000   0.005   0.003   0.009
    2        0.000   0.001   0.009   0.004   0.014
    3        0.001   0.001   0.011   0.005   0.018
    4        0.000   0.001   0.009   0.004   0.014
    5        0.000   0.000   0.005   0.003   0.009
    6        0.000   0.000   0.005   0.002   0.007
    7        0.020   0.025   3.526   0.000   3.570
    8        0.023   0.027   3.321   0.000   3.371
    9        0.023   0.027   3.321   0.000   3.371
   10        0.013   0.003   1.636   0.000   1.652
   11        0.018   0.012   1.495   0.000   1.524
   12        0.013   0.003   1.636   0.000   1.652
   13        0.006  -0.035   0.000   0.000  -0.030
   14        0.004  -0.019   0.000   0.000  -0.015
   15        0.002  -0.012   0.000   0.000  -0.011
   16        0.004  -0.019   0.000   0.000  -0.015
   17        0.006  -0.035   0.000   0.000  -0.030
   18        0.007   0.004   0.000   0.000   0.011
   19        0.004  -0.030   0.000   0.000  -0.026
   20        0.004  -0.030   0.000   0.000  -0.026
   21        0.005  -0.028   0.000   0.000  -0.023
   22        0.006  -0.032   0.000   0.000  -0.026
   23        0.006  -0.032   0.000   0.000  -0.026
   24        0.005  -0.028   0.000   0.000  -0.023
   25        0.005  -0.030   0.000   0.000  -0.025
   26        0.003  -0.035   0.000   0.000  -0.031
   27        0.003  -0.035   0.000   0.000  -0.031
   28        0.005  -0.030   0.000   0.000  -0.025
   29        0.006  -0.033   0.000   0.000  -0.026
   30        0.006  -0.033   0.000   0.000  -0.026
--------------------------------------------------
tot          0.200  -0.393  14.979   0.021  14.807

 
    CHARGE:  cpu time    0.1755: real time    0.1762
    FORLOC:  cpu time    0.0106: real time    0.0106
    FORNL :  cpu time    1.1363: real time    1.1414
    STRESS:  cpu time    3.3791: real time    3.3927
    FORCOR:  cpu time    0.0844: real time    0.0847
    FORHAR:  cpu time    0.0179: real time    0.0180
    MIXING:  cpu time    0.0052: real time    0.0052
    OFIELD:  cpu time    0.0001: real time    0.0003

  FORCE on cell =-STRESS in cart. coord.  units (eV):
  Direction    XX          YY          ZZ          XY          YZ          ZX
  --------------------------------------------------------------------------------------
  Alpha Z   983.52265   983.52265   983.52265
  Ewald   -5115.03674 -5115.03674 -5242.03180    19.65189    24.65992   -24.65992
  Hartree  1207.95559  1207.95559  1096.20181    20.60046    26.18564   -26.18564
  E(xc)   -1046.30698 -1046.30698 -1046.37330    -0.01175    -0.02394     0.02394
  Local    -783.09095  -783.09095  -544.59580   -40.69118   -50.54886    50.54886
  n-local   415.84519   416.01080   416.68354     0.08342     0.47628    -0.06493
  augment   489.12068   489.12068   489.40193     0.03817     0.03472    -0.03284
  Kinetic  3848.07947  3848.19653  3847.33527     0.36795    -1.17023     0.03218
  Fock        0.00000     0.00000     0.00000     0.00000     0.00000     0.00000
  -------------------------------------------------------------------------------------
  Total       0.23025     0.23025     0.14429     0.03843    -0.00112     0.00112
  in kB       1.05064     1.05064     0.65839     0.17534    -0.00511     0.00511
  external pressure =        0.92 kB  Pullay stress =        0.00 kB


 VOLUME and BASIS-vectors are now :
 -----------------------------------------------------------------------------
  energy-cutoff  :      520.00
  volume of cell :      351.12
      direct lattice vectors                 reciprocal lattice vectors
     3.880731941  3.880731941  0.000000000     0.128841674  0.128841674  0.000000000
    -3.878883363  3.878883363  3.882750163    -0.085935483  0.085935483  0.085849605
     3.883702900 -3.883702900  7.775175738     0.042914273 -0.042914273  0.085743069

  length of vectors
     5.488183742  6.720656301  9.519435602     0.182209643  0.148795058  0.105048291


 FORCES acting on ions
    electron-ion (+dipol)            ewald-force                    non-local-force                 convergence-correction
 -----------------------------------------------------------------------------------------------
   0.421E+02 -.421E+02 0.111E+03   -.416E+02 0.416E+02 -.110E+03   -.410E+00 0.410E+00 -.999E+00   -.318E-01 0.318E-01 -.599E-01
   0.398E+02 -.398E+02 0.116E+03   -.395E+02 0.395E+02 -.115E+03   -.306E+00 0.306E+00 -.973E+00   -.296E-01 0.296E-01 -.711E-01
   -.156E-11 0.153E-11 0.313E-12   0.174E-12 -.261E-12 0.464E-12   0.000E+00 0.000E+00 0.000E+00   -.290E-12 0.334E-12 -.485E-12
   -.398E+02 0.398E+02 -.116E+03   0.395E+02 -.395E+02 0.115E+03   0.306E+00 -.306E+00 0.973E+00   0.296E-01 -.296E-01 0.711E-01
   -.421E+02 0.421E+02 -.111E+03   0.416E+02 -.416E+02 0.110E+03   0.410E+00 -.410E+00 0.999E+00   0.318E-01 -.318E-01 0.599E-01
   0.125E-11 -.130E-11 0.125E-11   -.163E-12 0.320E-12 -.384E-12   0.000E+00 0.000E+00 0.000E+00   0.280E-12 -.249E-12 0.524E-12
   -.340E-11 0.367E-11 -.252E-11   0.155E-12 -.199E-12 0.295E-12   0.000E+00 0.000E+00 0.000E+00   -.153E-12 0.176E-12 -.391E-12
   -.285E+02 0.285E+02 -.355E+02   0.282E+02 -.282E+02 0.350E+02   0.284E+00 -.284E+00 0.440E+00   0.260E-01 -.260E-01 0.363E-01
   0.285E+02 -.285E+02 0.355E+02   -.282E+02 0.282E+02 -.350E+02   -.284E+00 0.284E+00 -.440E+00   -.260E-01 0.260E-01 -.363E-01
   0.355E+02 -.355E+02 0.467E+02   -.350E+02 0.350E+02 -.454E+02   -.481E+00 0.481E+00 -.128E+01   -.365E-01 0.365E-01 -.650E-01
   0.398E-13 -.135E-13 0.111E-11   -.142E-12 0.220E-12 -.410E-12   0.000E+00 0.000E+00 0.000E+00   0.231E-12 -.264E-12 0.547E-12
   -.355E+02 0.355E+02 -.467E+02   0.350E+02 -.350E+02 0.454E+02   0.481E+00 -.481E+00 0.128E+01   0.365E-01 -.365E-01 0.650E-01
   -.117E+02 0.117E+02 -.655E+02   0.115E+02 -.115E+02 0.593E+02   0.117E+00 -.117E+00 0.620E+01   0.173E-01 -.173E-01 0.141E-01
   -.821E+01 0.821E+01 -.740E+02   0.786E+01 -.786E+01 0.694E+02   0.342E+00 -.342E+00 0.466E+01   0.155E-01 -.155E-01 0.295E-01
   -.832E-12 0.844E-12 0.416E-11   0.879E-13 -.151E-12 0.261E-12   0.136E-19 0.136E-19 0.000E+00   -.217E-12 0.187E-12 -.163E-12
   0.821E+01 -.821E+01 0.740E+02   -.786E+01 0.786E+01 -.694E+02   -.342E+00 0.342E+00 -.466E+01   -.155E-01 0.155E-01 -.295E-01
   0.117E+02 -.117E+02 0.655E+02   -.115E+02 0.115E+02 -.593E+02   -.117E+00 0.117E+00 -.620E+01   -.173E-01 0.173E-01 -.141E-01
   -.435E-11 0.471E-11 -.236E-11   -.128E-12 0.119E-12 -.249E-12   0.136E-19 0.136E-19 0.000E+00   0.153E-12 -.194E-12 0.360E-12
   -.139E+02 0.170E+02 -.102E+02   0.140E+02 -.181E+02 0.100E+02   -.406E-01 0.117E+01 0.122E+00   0.118E-01 -.113E-01 0.200E-01
   0.139E+02 -.170E+02 0.102E+02   -.140E+02 0.181E+02 -.100E+02   0.406E-01 -.117E+01 -.122E+00   -.118E-01 0.113E-01 -.200E-01
   0.249E+02 -.524E+02 0.240E+02   -.253E+02 0.476E+02 -.235E+02   0.507E+00 0.475E+01 -.479E+00   -.209E-01 0.725E-02 -.383E-01
   0.123E+02 -.210E+02 0.140E+02   -.125E+02 0.226E+02 -.137E+02   0.140E+00 -.163E+01 -.249E+00   -.905E-02 -.834E-02 -.196E-01
   -.123E+02 0.210E+02 -.140E+02   0.125E+02 -.226E+02 0.137E+02   -.140E+00 0.163E+01 0.249E+00   0.905E-02 0.834E-02 0.196E-01
   -.249E+02 0.524E+02 -.240E+02   0.253E+02 -.476E+02 0.235E+02   -.507E+00 -.475E+01 0.479E+00   0.209E-01 -.725E-02 0.383E-01
   -.524E+02 0.249E+02 -.240E+02   0.476E+02 -.253E+02 0.235E+02   0.475E+01 0.507E+00 0.479E+00   0.725E-02 -.209E-01 0.383E-01
   -.170E+02 0.139E+02 -.102E+02   0.181E+02 -.140E+02 0.100E+02   -.117E+01 0.406E-01 0.122E+00   0.113E-01 -.118E-01 0.200E-01
   0.170E+02 -.139E+02 0.102E+02   -.181E+02 0.140E+02 -.100E+02   0.117E+01 -.406E-01 -.122E+00   -.113E-01 0.118E-01 -.200E-01
   0.524E+02 -.249E+02 0.240E+02   -.476E+02 0.253E+02 -.235E+02   -.475E+01 -.507E+00 -.479E+00   -.725E-02 0.209E-01 -.383E-01
   0.210E+02 -.123E+02 0.140E+02   -.226E+02 0.125E+02 -.137E+02   0.163E+01 -.140E+00 -.249E+00   0.834E-02 0.905E-02 -.196E-01
   -.210E+02 0.123E+02 -.140E+02   0.226E+02 -.125E+02 0.137E+02   -.163E+01 0.140E+00 0.249E+00   -.834E-02 -.905E-02 0.196E-01
 -----------------------------------------------------------------------------------------------
   0.718E-11 0.223E-11 0.456E-11   0.000E+00 0.171E-12 0.155E-12   0.000E+00 0.167E-14 -.777E-15   -.143E-13 -.158E-12 0.263E-12
 
 
 POSITION                                       TOTAL-FORCE (eV/Angst)
 -----------------------------------------------------------------------------------
      3.93492     -0.05419      7.87184         0.064687     -0.064687     -0.064050
      0.04391     -0.04391      7.86661         0.021652     -0.021652     -0.022571
      3.88222     -0.00149      3.88759         0.000000      0.000000     -0.000000
     -0.03909      0.03909      3.79132        -0.021652      0.021652      0.022571
     -0.04937      3.93010      3.78609        -0.064687      0.064687      0.064050
      0.00000      0.00000      0.00000         0.000000      0.000000     -0.000000
      1.94278      1.93796      5.82896         0.000000      0.000000     -0.000000
     -1.93721      1.93721      5.82887         0.013978     -0.013978     -0.006698
      1.94203     -1.94203      5.82906        -0.013978      0.013978      0.006698
      1.93854      1.94220      9.70539        -0.024376      0.024376     -0.018974
     -1.93944      1.93944      1.94138         0.000000      0.000000     -0.000000
      1.94701      1.93372      1.95254         0.024376     -0.024376      0.018974
     -1.93896      1.93896      3.94618        -0.036444      0.036444     -0.007198
      1.95382      1.92691      3.93034        -0.001540      0.001540      0.021414
      1.94185     -1.94185      3.88759         0.000000      0.000000     -0.000000
      1.93173      1.94900      7.72758         0.001540     -0.001540     -0.021414
      1.94377     -1.94377      7.71174         0.036444     -0.036444      0.007198
      1.94037      1.94037      0.00000         0.000000      0.000000     -0.000000
      1.93873      3.89391      5.83890        -0.013708     -0.003049      0.001277
      1.94682     -0.01800      5.81902         0.013708      0.003049     -0.001277
      5.82395      0.03604      5.80873         0.036423     -0.006311     -0.014399
      1.94553     -0.02408      9.69979         0.014569     -0.005352     -0.006844
      1.94002      3.90000      1.95814        -0.014569      0.005352      0.006844
     -1.93839      3.83987      5.84920        -0.036423      0.006311      0.014399
      0.04086      5.81913      5.84920        -0.006311      0.036423      0.014399
     -0.01318      1.94200      5.83890         0.003049      0.013708      0.001277
      3.89873      1.93391      5.81902        -0.003049     -0.013708     -0.001277
      3.84469     -1.94321      5.80873         0.006311     -0.036423     -0.014399
      3.90482      1.93520      9.69979         0.005352     -0.014569     -0.006844
     -0.01926      1.94071      1.95814        -0.005352      0.014569      0.006844
 -----------------------------------------------------------------------------------
    total drift:                                0.000000      0.000000      0.000000


--------------------------------------------------------------------------------------------------------



  FREE ENERGIE OF THE ION-ELECTRON SYSTEM (eV)
  ---------------------------------------------------
  free  energy   TOTEN  =      -220.40024743 eV

  energy  without entropy=     -220.40024743  energy(sigma->0) =     -220.40024743
 


--------------------------------------------------------------------------------------------------------


    POTLOK:  cpu time    0.0876: real time    0.0878


--------------------------------------------------------------------------------------------------------


     LOOP+:  cpu time  101.1487: real time  101.6612
    4ORBIT:  cpu time    0.0000: real time    0.0000
 


 total charge     
 
# of ion       s       p       d       f       tot
--------------------------------------------------
    1        2.000   5.698   0.493   0.190   8.381
    2        2.000   5.699   0.494   0.192   8.386
    3        2.000   5.701   0.491   0.193   8.384
    4        2.000   5.699   0.494   0.192   8.386
    5        2.000   5.698   0.493   0.190   8.381
    6        2.000   5.697   0.485   0.187   8.369
    7        0.327   0.509   4.868   0.000   5.703
    8        0.350   0.552   4.866   0.000   5.768
    9        0.350   0.552   4.866   0.000   5.768
   10        0.398   0.574   8.320   0.000   9.291
   11        0.421   0.625   8.326   0.000   9.372
   12        0.398   0.574   8.320   0.000   9.291
   13        1.564   3.454   0.000   0.000   5.018
   14        1.561   3.456   0.000   0.000   5.017
   15        1.561   3.471   0.000   0.000   5.032
   16        1.561   3.456   0.000   0.000   5.017
   17        1.564   3.454   0.000   0.000   5.018
   18        1.557   3.450   0.000   0.000   5.007
   19        1.564   3.460   0.000   0.000   5.025
   20        1.564   3.460   0.000   0.000   5.025
   21        1.563   3.456   0.000   0.000   5.018
   22        1.559   3.451   0.000   0.000   5.010
   23        1.559   3.451   0.000   0.000   5.010
   24        1.563   3.456   0.000   0.000   5.018
   25        1.562   3.454   0.000   0.000   5.017
   26        1.563   3.458   0.000   0.000   5.021
   27        1.563   3.457   0.000   0.000   5.021
   28        1.562   3.454   0.000   0.000   5.017
   29        1.559   3.451   0.000   0.000   5.009
   30        1.559   3.451   0.000   0.000   5.009
--------------------------------------------------
tot         42.352  99.777  42.515   1.144 185.788

 


 magnetization (x)
 
# of ion       s       p       d       f       tot
--------------------------------------------------
    1        0.000   0.000   0.005   0.003   0.009
    2        0.000   0.001   0.009   0.004   0.014
    3        0.001   0.001   0.011   0.005   0.018
    4        0.000   0.001   0.009   0.004   0.014
    5        0.000   0.000   0.005   0.003   0.009
    6        0.000   0.000   0.005   0.002   0.007
    7        0.020   0.025   3.526   0.000   3.570
    8        0.023   0.027   3.321   0.000   3.371
    9        0.023   0.027   3.321   0.000   3.371
   10        0.013   0.003   1.636   0.000   1.652
   11        0.018   0.012   1.495   0.000   1.524
   12        0.013   0.003   1.636   0.000   1.652
   13        0.006  -0.035   0.000   0.000  -0.030
   14        0.004  -0.019   0.000   0.000  -0.015
   15        0.002  -0.012   0.000   0.000  -0.011
   16        0.004  -0.019   0.000   0.000  -0.015
   17        0.006  -0.035   0.000   0.000  -0.030
   18        0.007   0.004   0.000   0.000   0.011
   19        0.004  -0.030   0.000   0.000  -0.026
   20        0.004  -0.030   0.000   0.000  -0.026
   21        0.005  -0.028   0.000   0.000  -0.023
   22        0.006  -0.032   0.000   0.000  -0.026
   23        0.006  -0.032   0.000   0.000  -0.026
   24        0.005  -0.028   0.000   0.000  -0.023
   25        0.005  -0.030   0.000   0.000  -0.025
   26        0.003  -0.035   0.000   0.000  -0.031
   27        0.003  -0.035   0.000   0.000  -0.031
   28        0.005  -0.030   0.000   0.000  -0.025
   29        0.006  -0.033   0.000   0.000  -0.026
   30        0.006  -0.033   0.000   0.000  -0.026
--------------------------------------------------
tot          0.200  -0.393  14.979   0.021  14.807

 
 BZINTS: Fermi energy:  7.736179;225.000000 electrons
         Band energy:-329.696418;  BLOECHL correction: -0.000899

 total amount of memory used by VASP MPI-rank0    76389. kBytes
=======================================================================

   base      :      30000. kBytes
   nonlr-proj:       6783. kBytes
   fftplans  :       2897. kBytes
   grid      :       8440. kBytes
   one-center:        294. kBytes
   wavefun   :      27975. kBytes
 
  
  
 General timing and accounting informations for this job:
 ========================================================
  
                  Total CPU time used (sec):      110.373
                            User time (sec):      107.456
                          System time (sec):        2.917
                         Elapsed time (sec):      111.052
  
                   Maximum memory used (kb):      130084.
                   Average memory used (kb):           0.
  
                          Minor page faults:        41721
                          Major page faults:            0
                 Voluntary context switches:         1192
