       N       E                     dE             d eps       ncg     rms          rms(c)
DAV:   1     0.291841377922E+04    0.29184E+04   -0.65849E+04  4632   0.246E+03
DAV:   2     0.977860511889E+03   -0.19406E+04   -0.17512E+04  4888   0.629E+02
DAV:   3     0.193123133968E+03   -0.78474E+03   -0.71280E+03  5032   0.326E+02
DAV:   4    -0.144434275454E+03   -0.33756E+03   -0.32092E+03  7024   0.173E+02
DAV:   5    -0.212195740434E+03   -0.67761E+02   -0.65465E+02  7936   0.897E+01    0.656E+01
RMM:   6    -0.190138479697E+03    0.22057E+02   -0.61877E+02  7209   0.106E+02    0.960E+01
RMM:   7    -0.192025220522E+03   -0.18867E+01   -0.13043E+02  7739   0.338E+01    0.483E+01
RMM:   8    -0.183987151191E+03    0.80381E+01   -0.84818E+01  5649   0.503E+01    0.250E+01
RMM:   9    -0.188215314227E+03   -0.42282E+01   -0.45824E+01  7023   0.190E+01    0.187E+01
RMM:  10    -0.187474739593E+03    0.74057E+00   -0.61267E+00  7192   0.923E+00    0.110E+01
RMM:  11    -0.186830778695E+03    0.64396E+00   -0.48114E+00  7194   0.813E+00    0.674E+00
RMM:  12    -0.186895596563E+03   -0.64818E-01   -0.23122E+00  7686   0.398E+00    0.444E+00
RMM:  13    -0.186927919429E+03   -0.32323E-01   -0.57243E-01  7433   0.211E+00    0.320E+00
RMM:  14    -0.186953456331E+03   -0.25537E-01   -0.20316E-01  7519   0.106E+00    0.216E+00
RMM:  15    -0.186957074543E+03   -0.36182E-02   -0.73082E-02  6714   0.716E-01    0.134E+00
RMM:  16    -0.186953084150E+03    0.39904E-02   -0.75128E-02  6671   0.825E-01    0.672E-01
RMM:  17    -0.186956231870E+03   -0.31477E-02   -0.41101E-02  6311   0.615E-01    0.191E-01
RMM:  18    -0.186956898739E+03   -0.66687E-03   -0.10410E-02  4354   0.430E-01    0.183E-01
RMM:  19    -0.186957019606E+03   -0.12087E-03   -0.57619E-03  4136   0.327E-01
   1 F= -.18695702E+03 E0= -.18695702E+03  d E =0.000000E+00  mag=    14.0124
