       N       E                     dE             d eps       ncg     rms          rms(c)
DAV:   1     0.292496038210E+04    0.29250E+04   -0.66145E+04  5664   0.246E+03
DAV:   2     0.985073247930E+03   -0.19399E+04   -0.17511E+04  5968   0.628E+02
DAV:   3     0.198022598617E+03   -0.78705E+03   -0.71400E+03  6056   0.327E+02
DAV:   4    -0.142891146881E+03   -0.34091E+03   -0.32427E+03  8672   0.172E+02
DAV:   5    -0.212542761591E+03   -0.69652E+02   -0.67579E+02  9744   0.911E+01    0.646E+01
RMM:   6    -0.191650554915E+03    0.20892E+02   -0.62762E+02  8939   0.105E+02    0.973E+01
RMM:   7    -0.191213045749E+03    0.43751E+00   -0.11680E+02  9334   0.343E+01    0.448E+01
RMM:   8    -0.183947249804E+03    0.72658E+01   -0.67669E+01  7069   0.452E+01    0.233E+01
RMM:   9    -0.187656543194E+03   -0.37093E+01   -0.41076E+01  8598   0.188E+01    0.174E+01
RMM:  10    -0.187437560747E+03    0.21898E+00   -0.63188E+00  8914   0.832E+00    0.101E+01
RMM:  11    -0.186928812827E+03    0.50875E+00   -0.41700E+00  8689   0.773E+00    0.647E+00
RMM:  12    -0.186996326960E+03   -0.67514E-01   -0.18502E+00  9478   0.335E+00    0.421E+00
RMM:  13    -0.187009449625E+03   -0.13123E-01   -0.39318E-01  9054   0.191E+00    0.306E+00
RMM:  14    -0.187027080302E+03   -0.17631E-01   -0.18616E-01  9041   0.120E+00    0.164E+00
RMM:  15    -0.187025412008E+03    0.16683E-02   -0.70864E-02  8146   0.801E-01    0.110E+00
RMM:  16    -0.187026749173E+03   -0.13372E-02   -0.51305E-02  7921   0.620E-01    0.434E-01
RMM:  17    -0.187028353745E+03   -0.16046E-02   -0.27759E-02  7339   0.561E-01    0.219E-01
RMM:  18    -0.187029415191E+03   -0.10614E-02   -0.13526E-02  5526   0.381E-01    0.111E-01
RMM:  19    -0.187029918918E+03   -0.50373E-03   -0.69602E-03  5196   0.377E-01
   1 F= -.18702992E+03 E0= -.18702992E+03  d E =0.000000E+00  mag=    13.9996
