 vasp.5.4.4.18Apr17-6-g9f103f2a35 (build Oct 03 2018 13:58:34) complex          
  
 executed on             LinuxIFC date 2019.06.04  01:11:48
 running on   40 total cores
 distrk:  each k-point on   20 cores,    2 groups
 distr:  one band on NCORES_PER_BAND=  10 cores,    2 groups


--------------------------------------------------------------------------------------------------------


 INCAR:
 POTCAR:    PAW_PBE La 06Sep2000                  
 POTCAR:    PAW_PBE Mn 06Sep2000                  
 POTCAR:    PAW_PBE Ni 02Aug2007                  
 POTCAR:    PAW_PBE O 08Apr2002                   

 ----------------------------------------------------------------------------- 
|                                                                             |
|           W    W    AA    RRRRR   N    N  II  N    N   GGGG   !!!           |
|           W    W   A  A   R    R  NN   N  II  NN   N  G    G  !!!           |
|           W    W  A    A  R    R  N N  N  II  N N  N  G       !!!           |
|           W WW W  AAAAAA  RRRRR   N  N N  II  N  N N  G  GGG   !            |
|           WW  WW  A    A  R   R   N   NN  II  N   NN  G    G                |
|           W    W  A    A  R    R  N    N  II  N    N   GGGG   !!!           |
|                                                                             |
|      You have enabled k-point parallelism (KPAR>1).                         |
|      This developmental code was originally  written by Paul Kent at ORNL,  |
|      and carefully double checked in Vienna.                                |
|      GW as well as linear response parallelism added by Martijn Marsman     |
|      and Georg Kresse.                                                      |
|      Carefully verify results versus KPAR=1.                                |
|      Report problems to Paul Kent and Vienna.                               |
|                                                                             |
 ----------------------------------------------------------------------------- 

 POTCAR:    PAW_PBE La 06Sep2000                  
   VRHFIN =La : [core=Kr4d]                                                     
   LEXCH  = PE                                                                  
   EATOM  =   865.9763 eV,   63.6475 Ry                                         
                                                                                
   TITEL  = PAW_PBE La 06Sep2000                                                
   LULTRA =        F    use ultrasoft PP ?                                      
   IUNSCR =        1    unscreen: 0-lin 1-nonlin 2-no                           
   RPACOR =    2.300    partial core radius                                     
   POMASS =  138.900; ZVAL   =   11.000    mass and valenz                      
   RCORE  =    2.800    outmost cutoff radius                                   
   RWIGS  =    2.900; RWIGS  =    1.535    wigner-seitz radius (au A)           
   ENMAX  =  219.292; ENMIN  =  164.469 eV                                      
   RCLOC  =    1.601    cutoff for local pot                                    
   LCOR   =        T    correct aug charges                                     
   LPAW   =        T    paw PP                                                  
   EAUG   =  583.575                                                            
   DEXC   =    0.000                                                            
   RMAX   =    2.853    core radius for proj-oper                               
   RAUG   =    1.300    factor for augmentation sphere                          
   RDEP   =    2.802    radius for radial grids                                 
   RDEPT  =    2.156    core radius for aug-charge                              
                                                                                
   Atomic configuration                                                         
   14 entries                                                                   
     n  l   j            E        occ.                                          
     1  0  0.50    -38741.0879   2.0000                                         
     2  0  0.50     -6166.6801   2.0000                                         
     2  1  1.50     -5526.1593   6.0000                                         
     3  0  0.50     -1319.0200   2.0000                                         
     3  1  1.50     -1114.5963   6.0000                                         
     3  2  2.50      -821.1793  10.0000                                         
     4  0  0.50      -266.3851   2.0000                                         
     4  1  1.50      -199.9276   6.0000                                         
     4  2  2.50      -103.8239  10.0000                                         
     5  0  0.50       -38.9172   2.0000                                         
     6  0  0.50        -3.6792   2.0000                                         
     5  1  1.50       -22.3948   6.0000                                         
     5  2  2.50        -3.0911   0.9999                                         
     4  3  2.50        -4.3603   0.0001                                         
   Description                                                                  
     l       E           TYP  RCUT    TYP  RCUT                                 
     0    -38.9171645     23  2.800                                             
     0     -3.6792381     23  2.800                                             
     1    -22.3948300     23  2.500                                             
     1     27.2116520     23  2.500                                             
     2     -3.0910934     23  2.500                                             
     2      1.0119135     23  2.500                                             
     3     -4.3602911     23  2.800                                             
     3     -5.7208737     23  2.800                                             
  local pseudopotential read in
  partial core-charges read in
  partial kinetic energy density read in
  atomic valenz-charges read in
  non local Contribution for L=           0  read in
    real space projection operators read in
  non local Contribution for L=           0  read in
    real space projection operators read in
  non local Contribution for L=           1  read in
    real space projection operators read in
  non local Contribution for L=           1  read in
    real space projection operators read in
  non local Contribution for L=           2  read in
    real space projection operators read in
  non local Contribution for L=           2  read in
    real space projection operators read in
  non local Contribution for L=           3  read in
    real space projection operators read in
  non local Contribution for L=           3  read in
    real space projection operators read in
    PAW grid and wavefunctions read in
 
   number of l-projection  operators is LMAX  =           8
   number of lm-projection operators is LMMAX =          32
 
 POTCAR:    PAW_PBE Mn 06Sep2000                  
   VRHFIN =Mn: d6 s1                                                            
   LEXCH  = PE                                                                  
   EATOM  =   416.7541 eV,   30.6306 Ry                                         
                                                                                
   TITEL  = PAW_PBE Mn 06Sep2000                                                
   LULTRA =        F    use ultrasoft PP ?                                      
   IUNSCR =        1    unscreen: 0-lin 1-nonlin 2-no                           
   RPACOR =    2.000    partial core radius                                     
   POMASS =   54.938; ZVAL   =    7.000    mass and valenz                      
   RCORE  =    2.300    outmost cutoff radius                                   
   RWIGS  =    2.500; RWIGS  =    1.323    wigner-seitz radius (au A)           
   ENMAX  =  269.864; ENMIN  =  202.398 eV                                      
   RCLOC  =    1.725    cutoff for local pot                                    
   LCOR   =        T    correct aug charges                                     
   LPAW   =        T    paw PP                                                  
   EAUG   =  500.711                                                            
   DEXC   =    0.000                                                            
   RMAX   =    2.343    core radius for proj-oper                               
   RAUG   =    1.300    factor for augmentation sphere                          
   RDEP   =    2.338    radius for radial grids                                 
   RDEPT  =    1.911    core radius for aug-charge                              
                                                                                
   Atomic configuration                                                         
    9 entries                                                                   
     n  l   j            E        occ.                                          
     1  0  0.50     -6424.8288   2.0000                                         
     2  0  0.50      -739.1154   2.0000                                         
     2  1  1.50      -625.3949   6.0000                                         
     3  0  0.50       -81.6100   2.0000                                         
     3  1  1.50       -50.4667   6.0000                                         
     3  2  2.50        -3.3745   6.0000                                         
     4  0  0.50        -4.1331   1.0000                                         
     4  1  0.50        -4.0817   0.0000                                         
     4  3  2.50        -1.3606   0.0000                                         
   Description                                                                  
     l       E           TYP  RCUT    TYP  RCUT                                 
     2     -3.3744664     23  2.300                                             
     2     -4.7350490     23  2.300                                             
     0     -4.1331408     23  2.300                                             
     0      7.6656614     23  2.300                                             
     1     -2.7211652     23  2.300                                             
     1     20.4087390     23  2.300                                             
  local pseudopotential read in
  partial core-charges read in
  partial kinetic energy density read in
  atomic valenz-charges read in
  non local Contribution for L=           2  read in
    real space projection operators read in
  non local Contribution for L=           2  read in
    real space projection operators read in
  non local Contribution for L=           0  read in
    real space projection operators read in
  non local Contribution for L=           0  read in
    real space projection operators read in
  non local Contribution for L=           1  read in
    real space projection operators read in
  non local Contribution for L=           1  read in
    real space projection operators read in
    PAW grid and wavefunctions read in
 
   number of l-projection  operators is LMAX  =           6
   number of lm-projection operators is LMMAX =          18
 
 POTCAR:    PAW_PBE Ni 02Aug2007                  
   VRHFIN =Ni:                                                                  
   LEXCH  = PE                                                                  
   EATOM  =  1077.6739 eV,   79.2068 Ry                                         
                                                                                
   TITEL  = PAW_PBE Ni 02Aug2007                                                
   LULTRA =        F    use ultrasoft PP ?                                      
   IUNSCR =        1    unscreen: 0-lin 1-nonlin 2-no                           
   RPACOR =    2.000    partial core radius                                     
   POMASS =   58.690; ZVAL   =   10.000    mass and valenz                      
   RCORE  =    2.300    outmost cutoff radius                                   
   RWIGS  =    2.430; RWIGS  =    1.286    wigner-seitz radius (au A)           
   ENMAX  =  269.532; ENMIN  =  202.149 eV                                      
   RCLOC  =    1.201    cutoff for local pot                                    
   LCOR   =        T    correct aug charges                                     
   LPAW   =        T    paw PP                                                  
   EAUG   =  544.565                                                            
   DEXC   =    0.000                                                            
   RMAX   =    2.357    core radius for proj-oper                               
   RAUG   =    1.300    factor for augmentation sphere                          
   RDEP   =    2.390    radius for radial grids                                 
   RDEPT  =    1.838    core radius for aug-charge                              
                                                                                
   Atomic configuration                                                         
    9 entries                                                                   
     n  l   j            E        occ.                                          
     1  0  0.50     -8206.4253   2.0000                                         
     2  0  0.50      -976.1748   2.0000                                         
     2  1  1.50      -839.0571   6.0000                                         
     3  0  0.50      -105.9991   2.0000                                         
     3  1  1.50       -66.4603   6.0000                                         
     3  2  2.50        -4.6458   9.0000                                         
     4  0  0.50        -4.4926   1.0000                                         
     4  1  1.50        -4.0817   0.0000                                         
     4  3  2.50        -1.3606   0.0000                                         
   Description                                                                  
     l       E           TYP  RCUT    TYP  RCUT                                 
     2     -4.6457903     23  2.300                                             
     2     -6.0063729     23  2.300                                             
     0     -4.4925590     23  2.300                                             
     0      5.0102601     23  2.300                                             
     1     -2.7211652     23  2.300                                             
     1     16.5183231     23  2.300                                             
  local pseudopotential read in
  partial core-charges read in
  partial kinetic energy density read in
  atomic valenz-charges read in
  non local Contribution for L=           2  read in
    real space projection operators read in
  non local Contribution for L=           2  read in
    real space projection operators read in
  non local Contribution for L=           0  read in
    real space projection operators read in
  non local Contribution for L=           0  read in
    real space projection operators read in
  non local Contribution for L=           1  read in
    real space projection operators read in
  non local Contribution for L=           1  read in
    real space projection operators read in
    PAW grid and wavefunctions read in
 
   number of l-projection  operators is LMAX  =           6
   number of lm-projection operators is LMMAX =          18
 
 POTCAR:    PAW_PBE O 08Apr2002                   
   VRHFIN =O: s2p4                                                              
   LEXCH  = PE                                                                  
   EATOM  =   432.3788 eV,   31.7789 Ry                                         
                                                                                
   TITEL  = PAW_PBE O 08Apr2002                                                 
   LULTRA =        F    use ultrasoft PP ?                                      
   IUNSCR =        1    unscreen: 0-lin 1-nonlin 2-no                           
   RPACOR =    1.200    partial core radius                                     
   POMASS =   16.000; ZVAL   =    6.000    mass and valenz                      
   RCORE  =    1.520    outmost cutoff radius                                   
   RWIGS  =    1.550; RWIGS  =    0.820    wigner-seitz radius (au A)           
   ENMAX  =  400.000; ENMIN  =  300.000 eV                                      
   ICORE  =        2    local potential                                         
   LCOR   =        T    correct aug charges                                     
   LPAW   =        T    paw PP                                                  
   EAUG   =  605.392                                                            
   DEXC   =    0.000                                                            
   RMAX   =    1.553    core radius for proj-oper                               
   RAUG   =    1.300    factor for augmentation sphere                          
   RDEP   =    1.550    radius for radial grids                                 
   RDEPT  =    1.329    core radius for aug-charge                              
                                                                                
   Atomic configuration                                                         
    4 entries                                                                   
     n  l   j            E        occ.                                          
     1  0  0.50      -514.6923   2.0000                                         
     2  0  0.50       -23.9615   2.0000                                         
     2  1  0.50        -9.0305   4.0000                                         
     3  2  1.50        -9.5241   0.0000                                         
   Description                                                                  
     l       E           TYP  RCUT    TYP  RCUT                                 
     0    -23.9615318     23  1.200                                             
     0     -9.5240782     23  1.200                                             
     1     -9.0304911     23  1.520                                             
     1      8.1634956     23  1.520                                             
     2     -9.5240782      7  1.500                                             
  local pseudopotential read in
  partial core-charges read in
  partial kinetic energy density read in
  kinetic energy density of atom read in
  atomic valenz-charges read in
  non local Contribution for L=           0  read in
    real space projection operators read in
  non local Contribution for L=           0  read in
    real space projection operators read in
  non local Contribution for L=           1  read in
    real space projection operators read in
  non local Contribution for L=           1  read in
    real space projection operators read in
    PAW grid and wavefunctions read in
 
   number of l-projection  operators is LMAX  =           4
   number of lm-projection operators is LMMAX =           8
 
 Optimization of the real space projectors (new method)

 maximal supplied QI-value         = 13.42
 optimisation between [QCUT,QGAM] = [ 11.67, 23.35] = [ 38.16,152.62] Ry 
 Optimized for a Real-space Cutoff    1.63 Angstroem

   l    n(q)    QCUT    max X(q) W(low)/X(q) W(high)/X(q)  e(spline) 
   0     11    11.673    13.882    0.27E-04    0.79E-05    0.11E-06
   0     11    11.673    12.184    0.39E-04    0.13E-04    0.19E-06
   1     11    11.673     4.523    0.73E-05    0.76E-05    0.12E-06
   1     11    11.673     4.424    0.87E-05    0.13E-04    0.19E-06
   2     10    11.673    52.481    0.65E-04    0.36E-04    0.18E-06
   2     10    11.673    38.501    0.61E-04    0.33E-04    0.17E-06
   3     10    11.673    65.631    0.17E-03    0.14E-03    0.37E-06
   3     10    11.673    56.854    0.17E-03    0.14E-03    0.37E-06
 Optimization of the real space projectors (new method)

 maximal supplied QI-value         = 16.25
 optimisation between [QCUT,QGAM] = [ 11.54, 23.24] = [ 37.28,151.24] Ry 
 Optimized for a Real-space Cutoff    1.53 Angstroem

   l    n(q)    QCUT    max X(q) W(low)/X(q) W(high)/X(q)  e(spline) 
   2     10    11.539   110.144    0.12E-03    0.13E-03    0.25E-06
   2     10    11.539   103.200    0.12E-03    0.13E-03    0.25E-06
   0     11    11.539    68.437    0.46E-04    0.21E-04    0.32E-06
   0     11    11.539    33.971    0.37E-04    0.19E-04    0.29E-06
   1     10    11.539    17.065    0.51E-04    0.22E-04    0.13E-06
   1     10    11.539    12.540    0.41E-04    0.18E-04    0.11E-06
 Optimization of the real space projectors (new method)

 maximal supplied QI-value         = 16.25
 optimisation between [QCUT,QGAM] = [ 11.54, 23.24] = [ 37.28,151.24] Ry 
 Optimized for a Real-space Cutoff    1.45 Angstroem

   l    n(q)    QCUT    max X(q) W(low)/X(q) W(high)/X(q)  e(spline) 
   2      9    11.539    60.317    0.19E-03    0.47E-04    0.16E-06
   2      9    11.539    55.921    0.19E-03    0.48E-04    0.16E-06
   0     10    11.539    51.690    0.80E-04    0.50E-04    0.24E-06
   0     10    11.539    30.015    0.73E-04    0.45E-04    0.22E-06
   1     10    11.539    18.849    0.87E-04    0.16E-03    0.71E-07
   1     10    11.539    14.624    0.73E-04    0.13E-03    0.64E-07
 Optimization of the real space projectors (new method)

 maximal supplied QI-value         = 24.76
 optimisation between [QCUT,QGAM] = [ 11.64, 23.27] = [ 37.91,151.63] Ry 
 Optimized for a Real-space Cutoff    1.14 Angstroem

   l    n(q)    QCUT    max X(q) W(low)/X(q) W(high)/X(q)  e(spline) 
   0      8    11.635    20.381    0.10E-03    0.33E-03    0.24E-06
   0      8    11.635    15.268    0.11E-03    0.35E-03    0.26E-06
   1      7    11.635     5.964    0.24E-03    0.31E-03    0.30E-06
   1      7    11.635     5.382    0.22E-03    0.25E-03    0.26E-06
  PAW_PBE La 06Sep2000                  :
 energy of atom  1       EATOM= -865.9763
 kinetic energy error for atom=    0.0009 (will be added to EATOM!!)
  PAW_PBE Mn 06Sep2000                  :
 energy of atom  2       EATOM= -416.7541
 kinetic energy error for atom=    0.0024 (will be added to EATOM!!)
  PAW_PBE Ni 02Aug2007                  :
 energy of atom  3       EATOM=-1077.6739
 kinetic energy error for atom=    0.0030 (will be added to EATOM!!)
  PAW_PBE O 08Apr2002                   :
 energy of atom  4       EATOM= -432.3788
 kinetic energy error for atom=    0.0208 (will be added to EATOM!!)
 
 
 POSCAR: SCEL5_5_1_1_0_1_1/1                     
  positions in direct lattice
  velocities in cartesian coordinates
 exchange correlation table for  LEXCH =        8
   RHO(1)=    0.500       N(1)  =     2000
   RHO(2)=  100.500       N(2)  =     4000
 


--------------------------------------------------------------------------------------------------------


 ion  position               nearest neighbor table
   1  0.799  0.799  0.604-  24 2.72  17 2.72  12 2.72  19 2.75  14 2.75  21 2.75  21 2.75  19 2.75
                            14 2.75  23 2.79  11 2.79  16 2.79   6 3.33   9 3.36   9 3.36   9 3.36
   2  0.601  0.601  0.196-  22 2.72  20 2.72  15 2.72  13 2.75  18 2.75  25 2.75  25 2.75  18 2.75
                            13 2.75  23 2.79  11 2.79  16 2.79   6 3.33  10 3.36  10 3.36  10 3.36
   3  0.400  0.400  0.801-  22 2.75  20 2.75  15 2.75  17 2.75  12 2.75  24 2.75  24 2.75  17 2.75
                            12 2.75  21 2.77  19 2.77  14 2.77   7 3.36  10 3.36   6 3.37   6 3.37
   4  0.200  0.200  0.400-  25 2.75  21 2.75  13 2.75  18 2.75  14 2.75  19 2.75  11 2.75  16 2.75
                            11 2.75  23 2.75  16 2.75  23 2.75  10 3.38   9 3.38   7 3.38   8 3.38
   5  0.000  0.000  0.999-  24 2.75  17 2.75  12 2.75  20 2.75  15 2.75  22 2.75  22 2.75  20 2.75
                            15 2.75  25 2.77  18 2.77  13 2.77   8 3.36   9 3.36   6 3.37   6 3.37
   6  0.700  0.700  0.900-  15 1.91  20 1.91  17 1.91  12 1.91  24 1.91  22 1.91   1 3.33   2 3.33
                             5 3.37   3 3.37   3 3.37   3 3.37   5 3.37   5 3.37
   7  0.500  0.500  0.501-  14 1.92  19 1.92  21 1.92  11 1.96  16 1.96  23 1.96   3 3.36   4 3.38
                             4 3.38   4 3.38   1 3.38   1 3.38   1 3.38
   8  0.900  0.900  0.299-  13 1.92  18 1.92  25 1.92  11 1.96  16 1.96  23 1.96   5 3.36   4 3.38
                             4 3.38   4 3.38   2 3.38   2 3.38   2 3.38
   9  0.100  0.100  0.700-  14 1.97  19 1.97  21 1.97  12 1.98  17 1.98  24 1.98   1 3.36   1 3.36
                             1 3.36   5 3.36   3 3.37   3 3.37   3 3.37   4 3.38
  10  0.300  0.300  0.100-  13 1.97  18 1.97  25 1.97  20 1.98  15 1.98  22 1.98   2 3.36   2 3.36
                             2 3.36   3 3.36   5 3.37   5 3.37   5 3.37   4 3.38
  11  0.200  0.700  0.400-   7 1.96   8 1.96   4 2.75   4 2.75   2 2.79   1 2.79
  12  0.406  0.896  0.802-   6 1.91   9 1.98   1 2.72   5 2.75   3 2.75   3 2.75
  13  0.602  0.098  0.201-   8 1.92  10 1.97   4 2.75   2 2.75   2 2.75   5 2.77
  14  0.798  0.302  0.599-   7 1.92   9 1.97   4 2.75   1 2.75   1 2.75   3 2.77
  15  0.994  0.504  0.998-   6 1.91  10 1.98   2 2.72   3 2.75   5 2.75   5 2.75
  16  0.700  0.200  0.400-   7 1.96   8 1.96   4 2.75   4 2.75   2 2.79   1 2.79
  17  0.896  0.406  0.802-   6 1.91   9 1.98   1 2.72   5 2.75   3 2.75   3 2.75
  18  0.098  0.602  0.201-   8 1.92  10 1.97   4 2.75   2 2.75   2 2.75   5 2.77
  19  0.302  0.798  0.599-   7 1.92   9 1.97   4 2.75   1 2.75   1 2.75   3 2.77
  20  0.504  0.994  0.998-   6 1.91  10 1.98   2 2.72   3 2.75   5 2.75   5 2.75
  21  0.302  0.302  0.599-   7 1.92   9 1.97   4 2.75   1 2.75   1 2.75   3 2.77
  22  0.504  0.504  0.998-   6 1.91  10 1.98   2 2.72   3 2.75   5 2.75   5 2.75
  23  0.700  0.700  0.400-   8 1.96   7 1.96   4 2.75   4 2.75   2 2.79   1 2.79
  24  0.896  0.896  0.802-   6 1.91   9 1.98   1 2.72   5 2.75   3 2.75   3 2.75
  25  0.098  0.098  0.201-   8 1.92  10 1.97   4 2.75   2 2.75   2 2.75   5 2.77
 
  LATTYP: Found a trigonal (rhomboedric) cell.
 ALAT       =    11.6853842314
 COS(alpha) =     0.8890002488
  
  Lattice vectors:
  
 A1 = (   7.7898656069,  -3.8966899336,  -7.7898655972)
 A2 = (   7.7898656069,  -7.7898655972,  -3.8966899336)
 A3 = (   3.8966899434,  -7.7898655972,  -7.7898655972)


Analysis of symmetry for initial positions (statically):
=====================================================================
 Subroutine PRICEL returns:
 Original cell was already a primitive cell.
 

 Routine SETGRP: Setting up the symmetry group for a 
 trigonal (rhombohedral) supercell.


 Subroutine GETGRP returns: Found 12 space group operations
 (whereof  6 operations were pure point group operations)
 out of a pool of 12 trial point group operations.


The static configuration has the point symmetry C_3v.
 The point group associated with its full space group is D_3d.


Analysis of symmetry for dynamics (positions and initial velocities):
=====================================================================
 Subroutine PRICEL returns:
 Original cell was already a primitive cell.
 

 Routine SETGRP: Setting up the symmetry group for a 
 trigonal (rhombohedral) supercell.


 Subroutine GETGRP returns: Found 12 space group operations
 (whereof  6 operations were pure point group operations)
 out of a pool of 12 trial point group operations.


The dynamic configuration has the point symmetry C_3v.
 The point group associated with its full space group is D_3d.


Analysis of structural, dynamic, and magnetic symmetry:
=====================================================================
 Subroutine PRICEL returns:
 Original cell was already a primitive cell.
 

 Routine SETGRP: Setting up the symmetry group for a 
 trigonal (rhombohedral) supercell.


 Subroutine GETGRP returns: Found 12 space group operations
 (whereof  6 operations were pure point group operations)
 out of a pool of 12 trial point group operations.


The magnetic configuration has the point symmetry C_3v.
 The point group associated with its full space group is D_3d.


 Subroutine INISYM returns: Found 12 space group operations
 (whereof  6 operations are pure point group operations),
 and found     1 'primitive' translations

 
 
 KPOINTS: Automatic mesh                          

Automatic generation of k-mesh.
 generate k-points for:    4    4    2
Space group operators:
 irot       det(A)        alpha          n_x          n_y          n_z        tau_x        tau_y        tau_z
    1     1.000000     0.000000     1.000000     0.000000     0.000000     0.000000     0.000000     0.000000
    2    -1.000000   180.000000     0.707107     0.000000     0.707107     0.000000     0.000000     0.000000
    3     1.000000   120.000000    -0.577350     0.577350     0.577350     0.000000     0.000000     0.000000
    4    -1.000000   180.000000    -0.000000    -0.707107     0.707107     0.000000     0.000000     0.000000
    5     1.000000   120.000000     0.577350    -0.577350    -0.577350     0.000000     0.000000     0.000000
    6    -1.000000   180.000000     0.707107     0.707107     0.000000     0.000000     0.000000     0.000000
    7    -1.000000     0.000000     1.000000     0.000000     0.000000     0.400000     0.400000    -1.200000
    8     1.000000   180.000000     0.707107     0.000000     0.707107     0.400000     0.400000    -1.200000
    9    -1.000000   120.000000    -0.577350     0.577350     0.577350     0.400000     0.400000    -1.200000
   10     1.000000   180.000000    -0.000000    -0.707107     0.707107     0.400000     0.400000    -1.200000
   11    -1.000000   120.000000     0.577350    -0.577350    -0.577350     0.400000     0.400000    -1.200000
   12     1.000000   180.000000     0.707107     0.707107     0.000000     0.400000     0.400000    -1.200000
 
 Subroutine IBZKPT returns following result:
 ===========================================
 
 Found     11 irreducible k-points:
 
 Following reciprocal coordinates:
            Coordinates               Weight
  0.000000  0.000000  0.000000      1.000000
  0.250000 -0.000000  0.000000      4.000000
  0.500000 -0.000000  0.000000      3.000000
  0.250000  0.250000 -0.000000      2.000000
  0.500000  0.250000  0.000000      8.000000
 -0.250000  0.250000  0.000000      2.000000
  0.500000  0.500000 -0.000000      3.000000
  0.000000  0.000000  0.500000      1.000000
  0.250000 -0.000000  0.500000      4.000000
  0.250000  0.250000  0.500000      2.000000
 -0.250000  0.250000  0.500000      2.000000
 
 Following cartesian coordinates:
            Coordinates               Weight
  0.000000  0.000000  0.000000      1.000000
  0.025684 -0.025684  0.038531      4.000000
  0.051367 -0.051367  0.077063      3.000000
  0.051367  0.012848  0.012848      2.000000
  0.077051 -0.012836  0.051379      8.000000
  0.000000  0.064215 -0.064215      2.000000
  0.102735  0.025695  0.025695      3.000000
 -0.025672  0.025672  0.025672      1.000000
  0.000012 -0.000012  0.064203      4.000000
  0.025695  0.038520  0.038520      2.000000
 -0.025672  0.089887 -0.038543      2.000000
 
 TETIRR: Found     48 inequivalent tetrahedra from      192


--------------------------------------------------------------------------------------------------------




 Dimension of arrays:
   k-points           NKPTS =     11   k-points in BZ     NKDIM =     11   number of bands    NBANDS=    120
   number of dos      NEDOS =    301   number of ions     NIONS =     25
   non local maximal  LDIM  =      8   non local SUM 2l+1 LMDIM =     32
   total plane-waves  NPLWV = 158760
   max r-space proj   IRMAX =   9756   max aug-charges    IRDMAX=  28298
   dimension x,y,z NGX =    42 NGY =   42 NGZ =   90
   dimension x,y,z NGXF=    84 NGYF=   84 NGZF=  180
   support grid    NGXF=    84 NGYF=   84 NGZF=  180
   ions per type =               5   3   2  15
   NGX,Y,Z   is equivalent  to a cutoff of  12.68, 12.68, 12.80 a.u.
   NGXF,Y,Z  is equivalent  to a cutoff of  25.36, 25.36, 25.61 a.u.

 SYSTEM =  final                                   
 POSCAR =  SCEL5_5_1_1_0_1_1/1                     

 Startparameter for this run:
   NWRITE =      2    write-flag & timer
   PREC   = accura    normal or accurate (medium, high low for compatibility)
   ISTART =      0    job   : 0-new  1-cont  2-samecut
   ICHARG =      1    charge: 1-file 2-atom 10-const
   ISPIN  =      2    spin polarized calculation?
   LNONCOLLINEAR =      F non collinear calculations
   LSORBIT =      F    spin-orbit coupling
   INIWAV =      1    electr: 0-lowe 1-rand  2-diag
   LASPH  =      F    aspherical Exc in radial PAW
   METAGGA=      F    non-selfconsistent MetaGGA calc.

 Electronic Relaxation 1
   ENCUT  =  520.0 eV  38.22 Ry    6.18 a.u.  10.24 10.24 21.73*2*pi/ulx,y,z
   ENINI  =  520.0     initial cutoff
   ENAUG  =  605.4 eV  augmentation charge cutoff
   NELM   =    100;   NELMIN=  2; NELMDL= -5     # of ELM steps 
   EDIFF  = 0.1E-02   stopping-criterion for ELM
   LREAL  =      T    real-space projection
   NLSPLINE    = F    spline interpolate recip. space projectors
   LCOMPAT=      F    compatible to vasp.4.4
   GGA_COMPAT  = T    GGA compatible to vasp.4.4-vasp.4.6
   LMAXPAW     = -100 max onsite density
   LMAXMIX     =    6 max onsite mixed and CHGCAR
   VOSKOWN=      0    Vosko Wilk Nusair interpolation
   ROPT   =   -0.00025  -0.00025  -0.00025  -0.00025
 Ionic relaxation
   EDIFFG = 0.1E-01   stopping-criterion for IOM
   NSW    =      0    number of steps for IOM
   NBLOCK =      1;   KBLOCK =      1    inner block; outer block 
   IBRION =     -1    ionic relax: 0-MD 1-quasi-New 2-CG
   NFREE  =      0    steps in history (QN), initial steepest desc. (CG)
   ISIF   =      2    stress and relaxation
   IWAVPR =     10    prediction:  0-non 1-charg 2-wave 3-comb
   ISYM   =      2    0-nonsym 1-usesym 2-fastsym
   LCORR  =      T    Harris-Foulkes like correction to forces

   POTIM  = 0.5000    time-step for ionic-motion
   TEIN   =    0.0    initial temperature
   TEBEG  =    0.0;   TEEND  =   0.0 temperature during run
   SMASS  =  -3.00    Nose mass-parameter (am)
   estimated Nose-frequenzy (Omega)   =  0.10E-29 period in steps =****** mass=  -0.693E-27a.u.
   SCALEE = 1.0000    scale energy and forces
   NPACO  =    256;   APACO  = 16.0  distance and # of slots for P.C.
   PSTRESS=    0.0 pullay stress

  Mass of Ions in am
   POMASS = 138.90 54.94 58.69 16.00
  Ionic Valenz
   ZVAL   =  11.00  7.00 10.00  6.00
  Atomic Wigner-Seitz radii
   RWIGS  =  -1.00 -1.00 -1.00 -1.00
  virtual crystal weights 
   VCA    =   1.00  1.00  1.00  1.00
   NELECT =     186.0000    total number of electrons
   NUPDOWN=      -1.0000    fix difference up-down

 DOS related values:
   EMIN   =  10.00;   EMAX   =-10.00  energy-range for DOS
   EFERMI =   0.00
   ISMEAR =    -5;   SIGMA  =   0.05  broadening in eV -4-tet -1-fermi 0-gaus

 Electronic relaxation 2 (details)
   IALGO  =     68    algorithm
   LDIAG  =      T    sub-space diagonalisation (order eigenvalues)
   LSUBROT=      F    optimize rotation matrix (better conditioning)
   TURBO    =      0    0=normal 1=particle mesh
   IRESTART =      0    0=no restart 2=restart with 2 vectors
   NREBOOT  =      0    no. of reboots
   NMIN     =      0    reboot dimension
   EREF     =   0.00    reference energy to select bands
   IMIX   =      4    mixing-type and parameters
     AMIX     =   0.40;   BMIX     =  1.00
     AMIX_MAG =   1.60;   BMIX_MAG =  1.00
     AMIN     =   0.10
     WC   =   100.;   INIMIX=   1;  MIXPRE=   1;  MAXMIX= -45

 Intra band minimization:
   WEIMIN = 0.0000     energy-eigenvalue tresh-hold
   EBREAK =  0.21E-05  absolut break condition
   DEPER  =   0.30     relativ break condition  

   TIME   =   0.40     timestep for ELM

  volume/ion in A,a.u.               =      11.81        79.68
  Fermi-wavevector in a.u.,A,eV,Ry     =   1.403482  2.652196 26.800225  1.969761
  Thomas-Fermi vector in A             =   2.526139
 
 Write flags
   LWAVE        =      F    write WAVECAR
   LDOWNSAMPLE  =      F    k-point downsampling of WAVECAR
   LCHARG       =      T    write CHGCAR
   LVTOT        =      F    write LOCPOT, total local potential
   LVHAR        =      F    write LOCPOT, Hartree potential only
   LELF         =      F    write electronic localiz. function (ELF)
   LORBIT       =     11    0 simple, 1 ext, 2 COOP (PROOUT), +10 PAW based schemes


 Dipole corrections
   LMONO  =      F    monopole corrections only (constant potential shift)
   LDIPOL =      F    correct potential (dipole corrections)
   IDIPOL =      0    1-x, 2-y, 3-z, 4-all directions 
   EPSILON=  1.0000000 bulk dielectric constant

 LDA+U is selected, type is set to LDAUTYPE =  2
   angular momentum for each species LDAUL =     0    2    2    0
   U (eV)           for each species LDAUU =   0.0  3.9  6.2  0.0
   J (eV)           for each species LDAUJ =   0.0  0.0  0.0  0.0
 Exchange correlation treatment:
   GGA     =    --    GGA type
   LEXCH   =     8    internal setting for exchange type
   VOSKOWN=      0    Vosko Wilk Nusair interpolation
   LHFCALC =     F    Hartree Fock is set to
   LHFONE  =     F    Hartree Fock one center treatment
   AEXX    =    0.0000 exact exchange contribution

 Linear response parameters
   LEPSILON=     F    determine dielectric tensor
   LRPA    =     F    only Hartree local field effects (RPA)
   LNABLA  =     F    use nabla operator in PAW spheres
   LVEL    =     F    velocity operator in full k-point grid
   LINTERFAST=   F  fast interpolation
   KINTER  =     0    interpolate to denser k-point grid
   CSHIFT  =0.1000    complex shift for real part using Kramers Kronig
   OMEGAMAX=  -1.0    maximum frequency
   DEG_THRESHOLD= 0.2000000E-02 threshold for treating states as degnerate
   RTIME   =   -0.100 relaxation time in fs
  (WPLASMAI=    0.000 imaginary part of plasma frequency in eV, 0.658/RTIME)
   DFIELD  = 0.0000000 0.0000000 0.0000000 field for delta impulse in time
 
 Orbital magnetization related:
   ORBITALMAG=     F  switch on orbital magnetization
   LCHIMAG   =     F  perturbation theory with respect to B field
   DQ        =  0.001000  dq finite difference perturbation B field
   LLRAUG    =     F  two centre corrections for induced B field



--------------------------------------------------------------------------------------------------------


 Static calculation
 charge density and potential will be updated during run
 spin polarized calculation
 RMM-DIIS sequential band-by-band and
  variant of blocked Davidson during initial phase
 perform sub-space diagonalisation
    before iterative eigenvector-optimisation
 modified Broyden-mixing scheme, WC =      100.0
 initial mixing is a Kerker type mixing with AMIX =  0.4000 and BMIX =      1.0000
 Hartree-type preconditioning will be used
 using additional bands           27
 real space projection scheme for non local part
 use partial core corrections
 calculate Harris-corrections to forces 
   (improved forces if not selfconsistent)
 use gradient corrections 
 use of overlap-Matrix (Vanderbilt PP)
 Fermi weights with tetrahedron method with Bloechl corrections


--------------------------------------------------------------------------------------------------------


  energy-cutoff  :      520.00
  volume of cell :      295.20
      direct lattice vectors                 reciprocal lattice vectors
     3.893175664  0.000000000  3.893175664     0.102734617 -0.102734617  0.154125100
     3.893175664  3.893175664  0.000000000     0.102734617  0.154125100 -0.102734617
    -3.896689943  7.789865597  7.789865597    -0.051344135  0.051344135  0.051344135

  length of vectors
     5.505781824  5.505781824 11.685384228     0.211809701  0.211809701  0.088930651


 
 k-points in units of 2pi/SCALE and weight: Automatic mesh                          
   0.00000000  0.00000000  0.00000000       0.031
   0.02568365 -0.02568365  0.03853127       0.125
   0.05136731 -0.05136731  0.07706255       0.094
   0.05136731  0.01284762  0.01284762       0.062
   0.07705096 -0.01283603  0.05137890       0.250
   0.00000000  0.06421493 -0.06421493       0.062
   0.10273462  0.02569524  0.02569524       0.094
  -0.02567207  0.02567207  0.02567207       0.031
   0.00001159 -0.00001159  0.06420334       0.125
   0.02569524  0.03851969  0.03851969       0.062
  -0.02567207  0.08988700 -0.03854286       0.062
 
 k-points in reciprocal lattice and weights: Automatic mesh                          
   0.00000000  0.00000000  0.00000000       0.031
   0.25000000 -0.00000000  0.00000000       0.125
   0.50000000 -0.00000000  0.00000000       0.094
   0.25000000  0.25000000 -0.00000000       0.062
   0.50000000  0.25000000  0.00000000       0.250
  -0.25000000  0.25000000  0.00000000       0.062
   0.50000000  0.50000000 -0.00000000       0.094
   0.00000000  0.00000000  0.50000000       0.031
   0.25000000 -0.00000000  0.50000000       0.125
   0.25000000  0.25000000  0.50000000       0.062
  -0.25000000  0.25000000  0.50000000       0.062
 
 position of ions in fractional coordinates (direct lattice) 
   0.79879739  0.79879739  0.60360782
   0.60120261  0.60120261  0.19639218
   0.39981181  0.39981181  0.80056457
   0.20000000  0.20000000  0.40000000
   0.00018819  0.00018819  0.99943543
   0.70000000  0.70000000  0.90000000
   0.49951545  0.49951545  0.50145366
   0.90048455  0.90048455  0.29854634
   0.09991470  0.09991470  0.70025590
   0.30008530  0.30008530  0.09974410
   0.20000000  0.70000000  0.40000000
   0.40595471  0.89612804  0.80178922
   0.60166543  0.09848670  0.20136118
   0.79833457  0.30151330  0.59863882
   0.99404529  0.50387196  0.99821078
   0.70000000  0.20000000  0.40000000
   0.89612804  0.40595471  0.80178922
   0.09848670  0.60166543  0.20136118
   0.30151330  0.79833457  0.59863882
   0.50387196  0.99404529  0.99821078
   0.30151330  0.30151330  0.59863882
   0.50387196  0.50387196  0.99821078
   0.70000000  0.70000000  0.40000000
   0.89612804  0.89612804  0.80178922
   0.09848670  0.09848670  0.20136118
 
 position of ions in cartesian coordinates  (Angst):
   3.86764462  7.81188236  7.81188236
   3.91589528  3.87045604  3.87045604
  -0.00647667  7.79282799  7.79282799
  -0.00140571  3.89458137  3.89458137
  -3.89302470  7.78620035  7.78620035
   1.94342498  9.73610200  9.73610200
   1.93539330  5.85095802  5.85095802
   5.84814660  5.83138039  5.83138039
  -1.95070914  5.84388479  5.84388479
   1.94789771  1.94527795  1.94527795
   1.94518212  5.84116920  3.89458137
   1.94491288  9.73461410  7.82628322
   1.94117314  1.95200252  3.91096572
   1.94919110  5.83716023  7.77137268
   1.94193708  9.73758990 11.64592078
   1.94518212  3.89458137  5.84116920
   1.94491288  7.82628322  9.73461410
   1.94117314  3.91096572  1.95200252
   1.94919110  7.77137268  5.83716023
   1.94193708 11.64592078  9.73758990
   0.01497864  5.83716023  5.83716023
   0.03360620  9.73758990  9.73758990
   3.89176995  5.84116920  5.84116920
   3.85324376  9.73461410  9.73461410
  -0.01779006  1.95200252  1.95200252
 


--------------------------------------------------------------------------------------------------------


 k-point  1 :   0.0000 0.0000 0.0000  plane waves:    7907
 k-point  2 :   0.2500-0.0000 0.0000  plane waves:    7955
 k-point  3 :   0.5000-0.0000 0.0000  plane waves:    7990
 k-point  4 :   0.2500 0.2500-0.0000  plane waves:    7935
 k-point  5 :   0.5000 0.2500 0.0000  plane waves:    7957
 k-point  6 :  -0.2500 0.2500 0.0000  plane waves:    7944
 k-point  7 :   0.5000 0.5000-0.0000  plane waves:    7962
 k-point  8 :   0.0000 0.0000 0.5000  plane waves:    7920
 k-point  9 :   0.2500-0.0000 0.5000  plane waves:    7928
 k-point 10 :   0.2500 0.2500 0.5000  plane waves:    7941
 k-point 11 :  -0.2500 0.2500 0.5000  plane waves:    7940

 maximum and minimum number of plane-waves per node :       810      779

 maximum number of plane-waves:      7990
 maximum index in each direction: 
   IXMAX=   10   IYMAX=   10   IZMAX=   21
   IXMIN=  -10   IYMIN=  -10   IZMIN=  -22


 real space projection operators:
  total allocation   :      19992.17 KBytes
  max/ min on nodes  :       2385.62       1885.16


 parallel 3D FFT for wavefunctions:
    minimum data exchange during FFTs selected (reduces bandwidth)
 parallel 3D FFT for charge:
    minimum data exchange during FFTs selected (reduces bandwidth)


 total amount of memory used by VASP MPI-rank0    67326. kBytes
=======================================================================

   base      :      30000. kBytes
   nonlr-proj:       7081. kBytes
   fftplans  :       3030. kBytes
   grid      :       8843. kBytes
   one-center:        294. kBytes
   wavefun   :      18078. kBytes
 
     INWAV:  cpu time    0.0000: real time    0.0002
 Broyden mixing: mesh for mixing (old mesh)
   NGX = 21   NGY = 21   NGZ = 43
  (NGX  = 84   NGY  = 84   NGZ  =180)
  gives a total of  18963 points

 initial charge density was supplied:
 charge density of overlapping atoms calculated
 number of electron     186.0000000 magnetization      18.0000000
 keeping initial charge density in first step


--------------------------------------------------------------------------------------------------------


 Maximum index for non-local projection operator         1379
 Maximum index for augmentation-charges         2011 (set IRDMAX)


--------------------------------------------------------------------------------------------------------


 First call to EWALD:  gamma=   0.266
 Maximum number of real-space cells 4x 4x 2
 Maximum number of reciprocal cells 2x 2x 4

    FEWALD:  cpu time    0.0017: real time    0.0017


--------------------------------------- Iteration      1(   1)  ---------------------------------------


    POTLOK:  cpu time    0.0814: real time    0.0841
    SETDIJ:  cpu time    0.0157: real time    0.0158
atom =   1  type =  1  l = 0
 
 onsite density matrix
 
spin component  1
 
  1.0989
 
spin component  2
 
  1.0989
 
 occupancies and eigenvectors
 
  o =  1.0989  v =  1.0000  0.0000      0.0000  0.0000
  o =  1.0989  v =  0.0000  1.0000      0.0000  0.0000
atom =   2  type =  1  l = 0
 
 onsite density matrix
 
spin component  1
 
  1.0989
 
spin component  2
 
  1.0989
 
 occupancies and eigenvectors
 
  o =  1.0989  v =  1.0000  0.0000      0.0000  0.0000
  o =  1.0989  v =  0.0000  1.0000      0.0000  0.0000
atom =   3  type =  1  l = 0
 
 onsite density matrix
 
spin component  1
 
  1.0989
 
spin component  2
 
  1.0989
 
 occupancies and eigenvectors
 
  o =  1.0989  v =  1.0000  0.0000      0.0000  0.0000
  o =  1.0989  v =  0.0000  1.0000      0.0000  0.0000
atom =   4  type =  1  l = 0
 
 onsite density matrix
 
spin component  1
 
  1.0989
 
spin component  2
 
  1.0989
 
 occupancies and eigenvectors
 
  o =  1.0989  v =  1.0000  0.0000      0.0000  0.0000
  o =  1.0989  v =  0.0000  1.0000      0.0000  0.0000
atom =   5  type =  1  l = 0
 
 onsite density matrix
 
spin component  1
 
  1.0989
 
spin component  2
 
  1.0989
 
 occupancies and eigenvectors
 
  o =  1.0989  v =  1.0000  0.0000      0.0000  0.0000
  o =  1.0989  v =  0.0000  1.0000      0.0000  0.0000
atom =   6  type =  2  l = 2
 
 onsite density matrix
 
spin component  1
 
  0.8272  0.0000  0.0000  0.0000  0.0000
  0.0000  0.8272  0.0000  0.0000  0.0000
  0.0000  0.0000  0.8272  0.0000  0.0000
  0.0000  0.0000  0.0000  0.8272  0.0000
  0.0000  0.0000  0.0000  0.0000  0.8272
 
spin component  2
 
  0.2256  0.0000  0.0000  0.0000  0.0000
  0.0000  0.2256  0.0000  0.0000  0.0000
  0.0000  0.0000  0.2256  0.0000  0.0000
  0.0000  0.0000  0.0000  0.2256  0.0000
  0.0000  0.0000  0.0000  0.0000  0.2256
 
 occupancies and eigenvectors
 
  o =  0.2256  v =  0.0000  0.0000  0.0000  0.0000  0.0000  0.0000  0.0000  1.0000  0.0000  0.0000      0.0000  0.0000  0.0000  0.0000  0.0000  0.0000  0.0000  0.0000  0.0000  0.0000
  o =  0.2256  v =  0.0000  0.0000  0.0000  0.0000  0.0000  1.0000  0.0000  0.0000  0.0000  0.0000      0.0000  0.0000  0.0000  0.0000  0.0000  0.0000  0.0000  0.0000  0.0000  0.0000
  o =  0.2256  v =  0.0000  0.0000  0.0000  0.0000  0.0000  0.0000  1.0000  0.0000  0.0000  0.0000      0.0000  0.0000  0.0000  0.0000  0.0000  0.0000  0.0000  0.0000  0.0000  0.0000
  o =  0.2256  v =  0.0000  0.0000  0.0000  0.0000  0.0000  0.0000  0.0000  0.0000  1.0000  0.0000      0.0000  0.0000  0.0000  0.0000  0.0000  0.0000  0.0000  0.0000  0.0000  0.0000
  o =  0.2256  v =  0.0000  0.0000  0.0000  0.0000  0.0000  0.0000  0.0000  0.0000  0.0000  1.0000      0.0000  0.0000  0.0000  0.0000  0.0000  0.0000  0.0000  0.0000  0.0000  0.0000
  o =  0.8272  v =  0.0000  1.0000  0.0000  0.0000  0.0000  0.0000  0.0000  0.0000  0.0000  0.0000      0.0000  0.0000  0.0000  0.0000  0.0000  0.0000  0.0000  0.0000  0.0000  0.0000
  o =  0.8272  v =  0.0000  0.0000  1.0000  0.0000  0.0000  0.0000  0.0000  0.0000  0.0000  0.0000      0.0000  0.0000  0.0000  0.0000  0.0000  0.0000  0.0000  0.0000  0.0000  0.0000
  o =  0.8272  v =  1.0000  0.0000  0.0000  0.0000  0.0000  0.0000  0.0000  0.0000  0.0000  0.0000      0.0000  0.0000  0.0000  0.0000  0.0000  0.0000  0.0000  0.0000  0.0000  0.0000
  o =  0.8272  v =  0.0000  0.0000  0.0000  1.0000  0.0000  0.0000  0.0000  0.0000  0.0000  0.0000      0.0000  0.0000  0.0000  0.0000  0.0000  0.0000  0.0000  0.0000  0.0000  0.0000
  o =  0.8272  v =  0.0000  0.0000  0.0000  0.0000  1.0000  0.0000  0.0000  0.0000  0.0000  0.0000      0.0000  0.0000  0.0000  0.0000  0.0000  0.0000  0.0000  0.0000  0.0000  0.0000
atom =   7  type =  2  l = 2
 
 onsite density matrix
 
spin component  1
 
  0.8272  0.0000  0.0000  0.0000  0.0000
  0.0000  0.8272  0.0000  0.0000  0.0000
  0.0000  0.0000  0.8272  0.0000  0.0000
  0.0000  0.0000  0.0000  0.8272  0.0000
  0.0000  0.0000  0.0000  0.0000  0.8272
 
spin component  2
 
  0.2256  0.0000  0.0000  0.0000  0.0000
  0.0000  0.2256  0.0000  0.0000  0.0000
  0.0000  0.0000  0.2256  0.0000  0.0000
  0.0000  0.0000  0.0000  0.2256  0.0000
  0.0000  0.0000  0.0000  0.0000  0.2256
 
 occupancies and eigenvectors
 
  o =  0.2256  v =  0.0000  0.0000  0.0000  0.0000  0.0000  0.0000  0.0000  1.0000  0.0000  0.0000      0.0000  0.0000  0.0000  0.0000  0.0000  0.0000  0.0000  0.0000  0.0000  0.0000
  o =  0.2256  v =  0.0000  0.0000  0.0000  0.0000  0.0000  1.0000  0.0000  0.0000  0.0000  0.0000      0.0000  0.0000  0.0000  0.0000  0.0000  0.0000  0.0000  0.0000  0.0000  0.0000
  o =  0.2256  v =  0.0000  0.0000  0.0000  0.0000  0.0000  0.0000  1.0000  0.0000  0.0000  0.0000      0.0000  0.0000  0.0000  0.0000  0.0000  0.0000  0.0000  0.0000  0.0000  0.0000
  o =  0.2256  v =  0.0000  0.0000  0.0000  0.0000  0.0000  0.0000  0.0000  0.0000  1.0000  0.0000      0.0000  0.0000  0.0000  0.0000  0.0000  0.0000  0.0000  0.0000  0.0000  0.0000
  o =  0.2256  v =  0.0000  0.0000  0.0000  0.0000  0.0000  0.0000  0.0000  0.0000  0.0000  1.0000      0.0000  0.0000  0.0000  0.0000  0.0000  0.0000  0.0000  0.0000  0.0000  0.0000
  o =  0.8272  v =  0.0000  1.0000  0.0000  0.0000  0.0000  0.0000  0.0000  0.0000  0.0000  0.0000      0.0000  0.0000  0.0000  0.0000  0.0000  0.0000  0.0000  0.0000  0.0000  0.0000
  o =  0.8272  v =  0.0000  0.0000  1.0000  0.0000  0.0000  0.0000  0.0000  0.0000  0.0000  0.0000      0.0000  0.0000  0.0000  0.0000  0.0000  0.0000  0.0000  0.0000  0.0000  0.0000
  o =  0.8272  v =  1.0000  0.0000  0.0000  0.0000  0.0000  0.0000  0.0000  0.0000  0.0000  0.0000      0.0000  0.0000  0.0000  0.0000  0.0000  0.0000  0.0000  0.0000  0.0000  0.0000
  o =  0.8272  v =  0.0000  0.0000  0.0000  1.0000  0.0000  0.0000  0.0000  0.0000  0.0000  0.0000      0.0000  0.0000  0.0000  0.0000  0.0000  0.0000  0.0000  0.0000  0.0000  0.0000
  o =  0.8272  v =  0.0000  0.0000  0.0000  0.0000  1.0000  0.0000  0.0000  0.0000  0.0000  0.0000      0.0000  0.0000  0.0000  0.0000  0.0000  0.0000  0.0000  0.0000  0.0000  0.0000
atom =   8  type =  2  l = 2
 
 onsite density matrix
 
spin component  1
 
  0.8272  0.0000  0.0000  0.0000  0.0000
  0.0000  0.8272  0.0000  0.0000  0.0000
  0.0000  0.0000  0.8272  0.0000  0.0000
  0.0000  0.0000  0.0000  0.8272  0.0000
  0.0000  0.0000  0.0000  0.0000  0.8272
 
spin component  2
 
  0.2256  0.0000  0.0000  0.0000  0.0000
  0.0000  0.2256  0.0000  0.0000  0.0000
  0.0000  0.0000  0.2256  0.0000  0.0000
  0.0000  0.0000  0.0000  0.2256  0.0000
  0.0000  0.0000  0.0000  0.0000  0.2256
 
 occupancies and eigenvectors
 
  o =  0.2256  v =  0.0000  0.0000  0.0000  0.0000  0.0000  0.0000  0.0000  1.0000  0.0000  0.0000      0.0000  0.0000  0.0000  0.0000  0.0000  0.0000  0.0000  0.0000  0.0000  0.0000
  o =  0.2256  v =  0.0000  0.0000  0.0000  0.0000  0.0000  1.0000  0.0000  0.0000  0.0000  0.0000      0.0000  0.0000  0.0000  0.0000  0.0000  0.0000  0.0000  0.0000  0.0000  0.0000
  o =  0.2256  v =  0.0000  0.0000  0.0000  0.0000  0.0000  0.0000  1.0000  0.0000  0.0000  0.0000      0.0000  0.0000  0.0000  0.0000  0.0000  0.0000  0.0000  0.0000  0.0000  0.0000
  o =  0.2256  v =  0.0000  0.0000  0.0000  0.0000  0.0000  0.0000  0.0000  0.0000  1.0000  0.0000      0.0000  0.0000  0.0000  0.0000  0.0000  0.0000  0.0000  0.0000  0.0000  0.0000
  o =  0.2256  v =  0.0000  0.0000  0.0000  0.0000  0.0000  0.0000  0.0000  0.0000  0.0000  1.0000      0.0000  0.0000  0.0000  0.0000  0.0000  0.0000  0.0000  0.0000  0.0000  0.0000
  o =  0.8272  v =  0.0000  1.0000  0.0000  0.0000  0.0000  0.0000  0.0000  0.0000  0.0000  0.0000      0.0000  0.0000  0.0000  0.0000  0.0000  0.0000  0.0000  0.0000  0.0000  0.0000
  o =  0.8272  v =  0.0000  0.0000  1.0000  0.0000  0.0000  0.0000  0.0000  0.0000  0.0000  0.0000      0.0000  0.0000  0.0000  0.0000  0.0000  0.0000  0.0000  0.0000  0.0000  0.0000
  o =  0.8272  v =  1.0000  0.0000  0.0000  0.0000  0.0000  0.0000  0.0000  0.0000  0.0000  0.0000      0.0000  0.0000  0.0000  0.0000  0.0000  0.0000  0.0000  0.0000  0.0000  0.0000
  o =  0.8272  v =  0.0000  0.0000  0.0000  1.0000  0.0000  0.0000  0.0000  0.0000  0.0000  0.0000      0.0000  0.0000  0.0000  0.0000  0.0000  0.0000  0.0000  0.0000  0.0000  0.0000
  o =  0.8272  v =  0.0000  0.0000  0.0000  0.0000  1.0000  0.0000  0.0000  0.0000  0.0000  0.0000      0.0000  0.0000  0.0000  0.0000  0.0000  0.0000  0.0000  0.0000  0.0000  0.0000
atom =   9  type =  3  l = 2
 
 onsite density matrix
 
spin component  1
 
  1.1008  0.0000  0.0000  0.0000  0.0000
  0.0000  1.1008  0.0000  0.0000  0.0000
  0.0000  0.0000  1.1008  0.0000  0.0000
  0.0000  0.0000  0.0000  1.1008  0.0000
  0.0000  0.0000  0.0000  0.0000  1.1008
 
spin component  2
 
  0.5927  0.0000  0.0000  0.0000  0.0000
  0.0000  0.5927  0.0000  0.0000  0.0000
  0.0000  0.0000  0.5927  0.0000  0.0000
  0.0000  0.0000  0.0000  0.5927  0.0000
  0.0000  0.0000  0.0000  0.0000  0.5927
 
 occupancies and eigenvectors
 
  o =  0.5927  v =  0.0000  0.0000  0.0000  0.0000  0.0000  1.0000  0.0000  0.0000  0.0000  0.0000      0.0000  0.0000  0.0000  0.0000  0.0000  0.0000  0.0000  0.0000  0.0000  0.0000
  o =  0.5927  v =  0.0000  0.0000  0.0000  0.0000  0.0000  0.0000  1.0000  0.0000  0.0000  0.0000      0.0000  0.0000  0.0000  0.0000  0.0000  0.0000  0.0000  0.0000  0.0000  0.0000
  o =  0.5927  v =  0.0000  0.0000  0.0000  0.0000  0.0000  0.0000  0.0000  1.0000  0.0000  0.0000      0.0000  0.0000  0.0000  0.0000  0.0000  0.0000  0.0000  0.0000  0.0000  0.0000
  o =  0.5927  v =  0.0000  0.0000  0.0000  0.0000  0.0000  0.0000  0.0000  0.0000  1.0000  0.0000      0.0000  0.0000  0.0000  0.0000  0.0000  0.0000  0.0000  0.0000  0.0000  0.0000
  o =  0.5927  v =  0.0000  0.0000  0.0000  0.0000  0.0000  0.0000  0.0000  0.0000  0.0000  1.0000      0.0000  0.0000  0.0000  0.0000  0.0000  0.0000  0.0000  0.0000  0.0000  0.0000
  o =  1.1008  v =  1.0000  0.0000  0.0000  0.0000  0.0000  0.0000  0.0000  0.0000  0.0000  0.0000      0.0000  0.0000  0.0000  0.0000  0.0000  0.0000  0.0000  0.0000  0.0000  0.0000
  o =  1.1008  v =  0.0000  1.0000  0.0000  0.0000  0.0000  0.0000  0.0000  0.0000  0.0000  0.0000      0.0000  0.0000  0.0000  0.0000  0.0000  0.0000  0.0000  0.0000  0.0000  0.0000
  o =  1.1008  v =  0.0000  0.0000  1.0000  0.0000  0.0000  0.0000  0.0000  0.0000  0.0000  0.0000      0.0000  0.0000  0.0000  0.0000  0.0000  0.0000  0.0000  0.0000  0.0000  0.0000
  o =  1.1008  v =  0.0000  0.0000  0.0000  1.0000  0.0000  0.0000  0.0000  0.0000  0.0000  0.0000      0.0000  0.0000  0.0000  0.0000  0.0000  0.0000  0.0000  0.0000  0.0000  0.0000
  o =  1.1008  v =  0.0000  0.0000  0.0000  0.0000  1.0000  0.0000  0.0000  0.0000  0.0000  0.0000      0.0000  0.0000  0.0000  0.0000  0.0000  0.0000  0.0000  0.0000  0.0000  0.0000
atom =  10  type =  3  l = 2
 
 onsite density matrix
 
spin component  1
 
  1.1008  0.0000  0.0000  0.0000  0.0000
  0.0000  1.1008  0.0000  0.0000  0.0000
  0.0000  0.0000  1.1008  0.0000  0.0000
  0.0000  0.0000  0.0000  1.1008  0.0000
  0.0000  0.0000  0.0000  0.0000  1.1008
 
spin component  2
 
  0.5927  0.0000  0.0000  0.0000  0.0000
  0.0000  0.5927  0.0000  0.0000  0.0000
  0.0000  0.0000  0.5927  0.0000  0.0000
  0.0000  0.0000  0.0000  0.5927  0.0000
  0.0000  0.0000  0.0000  0.0000  0.5927
 
 occupancies and eigenvectors
 
  o =  0.5927  v =  0.0000  0.0000  0.0000  0.0000  0.0000  1.0000  0.0000  0.0000  0.0000  0.0000      0.0000  0.0000  0.0000  0.0000  0.0000  0.0000  0.0000  0.0000  0.0000  0.0000
  o =  0.5927  v =  0.0000  0.0000  0.0000  0.0000  0.0000  0.0000  1.0000  0.0000  0.0000  0.0000      0.0000  0.0000  0.0000  0.0000  0.0000  0.0000  0.0000  0.0000  0.0000  0.0000
  o =  0.5927  v =  0.0000  0.0000  0.0000  0.0000  0.0000  0.0000  0.0000  1.0000  0.0000  0.0000      0.0000  0.0000  0.0000  0.0000  0.0000  0.0000  0.0000  0.0000  0.0000  0.0000
  o =  0.5927  v =  0.0000  0.0000  0.0000  0.0000  0.0000  0.0000  0.0000  0.0000  1.0000  0.0000      0.0000  0.0000  0.0000  0.0000  0.0000  0.0000  0.0000  0.0000  0.0000  0.0000
  o =  0.5927  v =  0.0000  0.0000  0.0000  0.0000  0.0000  0.0000  0.0000  0.0000  0.0000  1.0000      0.0000  0.0000  0.0000  0.0000  0.0000  0.0000  0.0000  0.0000  0.0000  0.0000
  o =  1.1008  v =  1.0000  0.0000  0.0000  0.0000  0.0000  0.0000  0.0000  0.0000  0.0000  0.0000      0.0000  0.0000  0.0000  0.0000  0.0000  0.0000  0.0000  0.0000  0.0000  0.0000
  o =  1.1008  v =  0.0000  1.0000  0.0000  0.0000  0.0000  0.0000  0.0000  0.0000  0.0000  0.0000      0.0000  0.0000  0.0000  0.0000  0.0000  0.0000  0.0000  0.0000  0.0000  0.0000
  o =  1.1008  v =  0.0000  0.0000  1.0000  0.0000  0.0000  0.0000  0.0000  0.0000  0.0000  0.0000      0.0000  0.0000  0.0000  0.0000  0.0000  0.0000  0.0000  0.0000  0.0000  0.0000
  o =  1.1008  v =  0.0000  0.0000  0.0000  1.0000  0.0000  0.0000  0.0000  0.0000  0.0000  0.0000      0.0000  0.0000  0.0000  0.0000  0.0000  0.0000  0.0000  0.0000  0.0000  0.0000
  o =  1.1008  v =  0.0000  0.0000  0.0000  0.0000  1.0000  0.0000  0.0000  0.0000  0.0000  0.0000      0.0000  0.0000  0.0000  0.0000  0.0000  0.0000  0.0000  0.0000  0.0000  0.0000
atom =  11  type =  4  l = 0
 
 onsite density matrix
 
spin component  1
 
  0.8190
 
spin component  2
 
  0.8190
 
 occupancies and eigenvectors
 
  o =  0.8190  v =  1.0000  0.0000      0.0000  0.0000
  o =  0.8190  v =  0.0000  1.0000      0.0000  0.0000
atom =  12  type =  4  l = 0
 
 onsite density matrix
 
spin component  1
 
  0.8190
 
spin component  2
 
  0.8190
 
 occupancies and eigenvectors
 
  o =  0.8190  v =  1.0000  0.0000      0.0000  0.0000
  o =  0.8190  v =  0.0000  1.0000      0.0000  0.0000
atom =  13  type =  4  l = 0
 
 onsite density matrix
 
spin component  1
 
  0.8190
 
spin component  2
 
  0.8190
 
 occupancies and eigenvectors
 
  o =  0.8190  v =  1.0000  0.0000      0.0000  0.0000
  o =  0.8190  v =  0.0000  1.0000      0.0000  0.0000
atom =  14  type =  4  l = 0
 
 onsite density matrix
 
spin component  1
 
  0.8190
 
spin component  2
 
  0.8190
 
 occupancies and eigenvectors
 
  o =  0.8190  v =  1.0000  0.0000      0.0000  0.0000
  o =  0.8190  v =  0.0000  1.0000      0.0000  0.0000
atom =  15  type =  4  l = 0
 
 onsite density matrix
 
spin component  1
 
  0.8190
 
spin component  2
 
  0.8190
 
 occupancies and eigenvectors
 
  o =  0.8190  v =  1.0000  0.0000      0.0000  0.0000
  o =  0.8190  v =  0.0000  1.0000      0.0000  0.0000
atom =  16  type =  4  l = 0
 
 onsite density matrix
 
spin component  1
 
  0.8190
 
spin component  2
 
  0.8190
 
 occupancies and eigenvectors
 
  o =  0.8190  v =  1.0000  0.0000      0.0000  0.0000
  o =  0.8190  v =  0.0000  1.0000      0.0000  0.0000
atom =  17  type =  4  l = 0
 
 onsite density matrix
 
spin component  1
 
  0.8190
 
spin component  2
 
  0.8190
 
 occupancies and eigenvectors
 
  o =  0.8190  v =  1.0000  0.0000      0.0000  0.0000
  o =  0.8190  v =  0.0000  1.0000      0.0000  0.0000
atom =  18  type =  4  l = 0
 
 onsite density matrix
 
spin component  1
 
  0.8190
 
spin component  2
 
  0.8190
 
 occupancies and eigenvectors
 
  o =  0.8190  v =  1.0000  0.0000      0.0000  0.0000
  o =  0.8190  v =  0.0000  1.0000      0.0000  0.0000
atom =  19  type =  4  l = 0
 
 onsite density matrix
 
spin component  1
 
  0.8190
 
spin component  2
 
  0.8190
 
 occupancies and eigenvectors
 
  o =  0.8190  v =  1.0000  0.0000      0.0000  0.0000
  o =  0.8190  v =  0.0000  1.0000      0.0000  0.0000
atom =  20  type =  4  l = 0
 
 onsite density matrix
 
spin component  1
 
  0.8190
 
spin component  2
 
  0.8190
 
 occupancies and eigenvectors
 
  o =  0.8190  v =  1.0000  0.0000      0.0000  0.0000
  o =  0.8190  v =  0.0000  1.0000      0.0000  0.0000
atom =  21  type =  4  l = 0
 
 onsite density matrix
 
spin component  1
 
  0.8190
 
spin component  2
 
  0.8190
 
 occupancies and eigenvectors
 
  o =  0.8190  v =  1.0000  0.0000      0.0000  0.0000
  o =  0.8190  v =  0.0000  1.0000      0.0000  0.0000
atom =  22  type =  4  l = 0
 
 onsite density matrix
 
spin component  1
 
  0.8190
 
spin component  2
 
  0.8190
 
 occupancies and eigenvectors
 
  o =  0.8190  v =  1.0000  0.0000      0.0000  0.0000
  o =  0.8190  v =  0.0000  1.0000      0.0000  0.0000
atom =  23  type =  4  l = 0
 
 onsite density matrix
 
spin component  1
 
  0.8190
 
spin component  2
 
  0.8190
 
 occupancies and eigenvectors
 
  o =  0.8190  v =  1.0000  0.0000      0.0000  0.0000
  o =  0.8190  v =  0.0000  1.0000      0.0000  0.0000
atom =  24  type =  4  l = 0
 
 onsite density matrix
 
spin component  1
 
  0.8190
 
spin component  2
 
  0.8190
 
 occupancies and eigenvectors
 
  o =  0.8190  v =  1.0000  0.0000      0.0000  0.0000
  o =  0.8190  v =  0.0000  1.0000      0.0000  0.0000
atom =  25  type =  4  l = 0
 
 onsite density matrix
 
spin component  1
 
  0.8190
 
spin component  2
 
  0.8190
 
 occupancies and eigenvectors
 
  o =  0.8190  v =  1.0000  0.0000      0.0000  0.0000
  o =  0.8190  v =  0.0000  1.0000      0.0000  0.0000
     EDDAV:  cpu time    3.3850: real time    3.4000
 BZINTS: Fermi energy: 30.547561;186.000000 electrons
         Band energy:2736.209117;  BLOECHL correction: -0.176117
       DOS:  cpu time    0.0171: real time    0.0172
    --------------------------------------------
      LOOP:  cpu time    3.4992: real time    3.5170

 eigenvalue-minimisations  :  5664
 total energy-change (2. order) : 0.2924960E+04  (-0.6614478E+04)
 number of electron     186.0000000 magnetization      18.0000000
 augmentation part      186.0000000 magnetization      18.0000000

 Free energy of the ion-electron system (eV)
  ---------------------------------------------------
  alpha Z        PSCENC =       814.65470113
  Ewald energy   TEWEN  =    -12703.69862679
  -Hartree energ DENC   =     -2706.96509239
  -exchange      EXHF   =         0.00000000
  -V(xc)+E(xc)   XCENC  =       606.56567734
  PAW double counting   =     11556.14676195   -11598.79573466
  entropy T*S    EENTRO =         0.00000000
  eigenvalues    EBANDS =      2736.20911743
  atomic energy  EATOM  =     14220.84357809
  Solvation  Ediel_sol  =         0.00000000
  ---------------------------------------------------
  free energy    TOTEN  =      2924.96038210 eV

  energy without entropy =     2924.96038210  energy(sigma->0) =     2924.96038210


--------------------------------------------------------------------------------------------------------




--------------------------------------- Iteration      1(   2)  ---------------------------------------


     EDDAV:  cpu time    3.4950: real time    3.5119
 BZINTS: Fermi energy: 16.197333;186.000000 electrons
         Band energy: 796.321983;  BLOECHL correction: -0.062348
       DOS:  cpu time    0.0177: real time    0.0177
    --------------------------------------------
      LOOP:  cpu time    3.5127: real time    3.5296

 eigenvalue-minimisations  :  5968
 total energy-change (2. order) :-0.1939887E+04  (-0.1751062E+04)
 number of electron     186.0000000 magnetization      18.0000000
 augmentation part      186.0000000 magnetization      18.0000000

 Free energy of the ion-electron system (eV)
  ---------------------------------------------------
  alpha Z        PSCENC =       814.65470113
  Ewald energy   TEWEN  =    -12703.69862679
  -Hartree energ DENC   =     -2706.96509239
  -exchange      EXHF   =         0.00000000
  -V(xc)+E(xc)   XCENC  =       606.56567734
  PAW double counting   =     11556.14676195   -11598.79573466
  entropy T*S    EENTRO =         0.00000000
  eigenvalues    EBANDS =       796.32198326
  atomic energy  EATOM  =     14220.84357809
  Solvation  Ediel_sol  =         0.00000000
  ---------------------------------------------------
  free energy    TOTEN  =       985.07324793 eV

  energy without entropy =      985.07324793  energy(sigma->0) =      985.07324793


--------------------------------------------------------------------------------------------------------




--------------------------------------- Iteration      1(   3)  ---------------------------------------


     EDDAV:  cpu time    3.5487: real time    3.5612
 BZINTS: Fermi energy: 12.058970;186.000000 electrons
         Band energy:   9.271334;  BLOECHL correction: -0.032501
       DOS:  cpu time    0.0181: real time    0.0181
    --------------------------------------------
      LOOP:  cpu time    3.5668: real time    3.5794

 eigenvalue-minimisations  :  6056
 total energy-change (2. order) :-0.7870506E+03  (-0.7140003E+03)
 number of electron     186.0000000 magnetization      18.0000000
 augmentation part      186.0000000 magnetization      18.0000000

 Free energy of the ion-electron system (eV)
  ---------------------------------------------------
  alpha Z        PSCENC =       814.65470113
  Ewald energy   TEWEN  =    -12703.69862679
  -Hartree energ DENC   =     -2706.96509239
  -exchange      EXHF   =         0.00000000
  -V(xc)+E(xc)   XCENC  =       606.56567734
  PAW double counting   =     11556.14676195   -11598.79573466
  entropy T*S    EENTRO =         0.00000000
  eigenvalues    EBANDS =         9.27133395
  atomic energy  EATOM  =     14220.84357809
  Solvation  Ediel_sol  =         0.00000000
  ---------------------------------------------------
  free energy    TOTEN  =       198.02259862 eV

  energy without entropy =      198.02259862  energy(sigma->0) =      198.02259862


--------------------------------------------------------------------------------------------------------




--------------------------------------- Iteration      1(   4)  ---------------------------------------


     EDDAV:  cpu time    4.7617: real time    4.7800
 BZINTS: Fermi energy: 11.400599;186.000000 electrons
         Band energy:-331.642412;  BLOECHL correction: -0.002687
       DOS:  cpu time    0.0196: real time    0.0196
    --------------------------------------------
      LOOP:  cpu time    4.7813: real time    4.7996

 eigenvalue-minimisations  :  8672
 total energy-change (2. order) :-0.3409137E+03  (-0.3242731E+03)
 number of electron     186.0000000 magnetization      18.0000000
 augmentation part      186.0000000 magnetization      18.0000000

 Free energy of the ion-electron system (eV)
  ---------------------------------------------------
  alpha Z        PSCENC =       814.65470113
  Ewald energy   TEWEN  =    -12703.69862679
  -Hartree energ DENC   =     -2706.96509239
  -exchange      EXHF   =         0.00000000
  -V(xc)+E(xc)   XCENC  =       606.56567734
  PAW double counting   =     11556.14676195   -11598.79573466
  entropy T*S    EENTRO =         0.00000000
  eigenvalues    EBANDS =      -331.64241155
  atomic energy  EATOM  =     14220.84357809
  Solvation  Ediel_sol  =         0.00000000
  ---------------------------------------------------
  free energy    TOTEN  =      -142.89114688 eV

  energy without entropy =     -142.89114688  energy(sigma->0) =     -142.89114688


--------------------------------------------------------------------------------------------------------




--------------------------------------- Iteration      1(   5)  ---------------------------------------


     EDDAV:  cpu time    5.2434: real time    5.2627
 BZINTS: Fermi energy: 10.974027;186.000000 electrons
         Band energy:-401.294026;  BLOECHL correction: -0.041713
       DOS:  cpu time    0.0180: real time    0.0181
    CHARGE:  cpu time    0.1706: real time    0.1715
    MIXING:  cpu time    0.0032: real time    0.0034
    --------------------------------------------
      LOOP:  cpu time    5.4353: real time    5.4557

 eigenvalue-minimisations  :  9744
 total energy-change (2. order) :-0.6965161E+02  (-0.6757942E+02)
 number of electron     185.9999990 magnetization      16.2994270
 augmentation part       22.3161353 magnetization      11.9180520

 Broyden mixing:
  rms(total) = 0.64627E+01    rms(broyden)= 0.64623E+01
  rms(prec ) = 0.73261E+01
  weight for this iteration     100.00

 Free energy of the ion-electron system (eV)
  ---------------------------------------------------
  alpha Z        PSCENC =       814.65470113
  Ewald energy   TEWEN  =    -12703.69862679
  -Hartree energ DENC   =     -2706.96509239
  -exchange      EXHF   =         0.00000000
  -V(xc)+E(xc)   XCENC  =       606.56567734
  PAW double counting   =     11556.14676195   -11598.79573466
  entropy T*S    EENTRO =         0.00000000
  eigenvalues    EBANDS =      -401.29402626
  atomic energy  EATOM  =     14220.84357809
  Solvation  Ediel_sol  =         0.00000000
  ---------------------------------------------------
  free energy    TOTEN  =      -212.54276159 eV

  energy without entropy =     -212.54276159  energy(sigma->0) =     -212.54276159


--------------------------------------------------------------------------------------------------------




--------------------------------------- Iteration      1(   6)  ---------------------------------------


    POTLOK:  cpu time    0.0796: real time    0.0802
    SETDIJ:  cpu time    0.0132: real time    0.0132
atom =   1  type =  1  l = 0
 
 onsite density matrix
 
spin component  1
 
  1.0562
 
spin component  2
 
  1.0562
 
 occupancies and eigenvectors
 
  o =  1.0562  v =  0.0000  1.0000      0.0000  0.0000
  o =  1.0562  v =  1.0000  0.0000      0.0000  0.0000
atom =   2  type =  1  l = 0
 
 onsite density matrix
 
spin component  1
 
  1.0562
 
spin component  2
 
  1.0562
 
 occupancies and eigenvectors
 
  o =  1.0562  v =  0.0000  1.0000      0.0000  0.0000
  o =  1.0562  v =  1.0000  0.0000      0.0000  0.0000
atom =   3  type =  1  l = 0
 
 onsite density matrix
 
spin component  1
 
  1.0567
 
spin component  2
 
  1.0570
 
 occupancies and eigenvectors
 
  o =  1.0567  v =  1.0000  0.0000      0.0000  0.0000
  o =  1.0570  v =  0.0000  1.0000      0.0000  0.0000
atom =   4  type =  1  l = 0
 
 onsite density matrix
 
spin component  1
 
  1.0559
 
spin component  2
 
  1.0564
 
 occupancies and eigenvectors
 
  o =  1.0559  v =  1.0000  0.0000      0.0000  0.0000
  o =  1.0564  v =  0.0000  1.0000      0.0000  0.0000
atom =   5  type =  1  l = 0
 
 onsite density matrix
 
spin component  1
 
  1.0567
 
spin component  2
 
  1.0570
 
 occupancies and eigenvectors
 
  o =  1.0567  v =  1.0000  0.0000      0.0000  0.0000
  o =  1.0570  v =  0.0000  1.0000      0.0000  0.0000
atom =   6  type =  2  l = 2
 
 onsite density matrix
 
spin component  1
 
  0.9609 -0.0005  0.0017  0.0005 -0.0000
 -0.0005  0.9609  0.0009 -0.0005 -0.0015
  0.0017  0.0009  0.3431 -0.0009 -0.0000
  0.0005 -0.0005 -0.0009  0.9609 -0.0015
 -0.0000 -0.0015 -0.0000 -0.0015  0.3431
 
spin component  2
 
  0.0344  0.0003 -0.0011 -0.0003  0.0000
  0.0003  0.0344 -0.0006  0.0003  0.0010
 -0.0011 -0.0006  0.4567  0.0006  0.0000
 -0.0003  0.0003  0.0006  0.0344  0.0010
  0.0000  0.0010  0.0000  0.0010  0.4567
 
 occupancies and eigenvectors
 
  o =  0.0338  v =  0.0000  0.0000  0.0000  0.0000  0.0000  0.5774 -0.5774  0.0000  0.5774 -0.0000      0.0000  0.0000  0.0000  0.0000  0.0000  0.0000  0.0000  0.0000  0.0000  0.0000
  o =  0.0346  v =  0.0000  0.0000  0.0000  0.0000  0.0000  0.7071  0.0000  0.0028 -0.7071  0.0016      0.0000  0.0000  0.0000  0.0000  0.0000  0.0000  0.0000  0.0000  0.0000  0.0000
  o =  0.0346  v =  0.0000  0.0000  0.0000  0.0000  0.0000  0.4082  0.8165  0.0016  0.4082 -0.0028      0.0000  0.0000  0.0000  0.0000  0.0000  0.0000  0.0000  0.0000  0.0000  0.0000
  o =  0.3431  v =  0.0024  0.0000 -0.8660 -0.0024 -0.5000  0.0000  0.0000  0.0000  0.0000  0.0000      0.0000  0.0000  0.0000  0.0000  0.0000  0.0000  0.0000  0.0000  0.0000  0.0000
  o =  0.3431  v =  0.0014  0.0028 -0.5000  0.0014  0.8660  0.0000  0.0000  0.0000  0.0000  0.0000      0.0000  0.0000  0.0000  0.0000  0.0000  0.0000  0.0000  0.0000  0.0000  0.0000
  o =  0.4567  v =  0.0000  0.0000  0.0000  0.0000  0.0000 -0.0013 -0.0027  0.5000 -0.0013 -0.8660      0.0000  0.0000  0.0000  0.0000  0.0000  0.0000  0.0000  0.0000  0.0000  0.0000
  o =  0.4567  v =  0.0000  0.0000  0.0000  0.0000  0.0000  0.0023 -0.0000 -0.8660 -0.0023 -0.5000      0.0000  0.0000  0.0000  0.0000  0.0000  0.0000  0.0000  0.0000  0.0000  0.0000
  o =  0.9604  v =  0.4082  0.8165  0.0017  0.4082 -0.0030  0.0000  0.0000  0.0000  0.0000  0.0000      0.0000  0.0000  0.0000  0.0000  0.0000  0.0000  0.0000  0.0000  0.0000  0.0000
  o =  0.9604  v =  0.7071  0.0000  0.0030 -0.7071  0.0017  0.0000  0.0000  0.0000  0.0000  0.0000      0.0000  0.0000  0.0000  0.0000  0.0000  0.0000  0.0000  0.0000  0.0000  0.0000
  o =  0.9619  v = -0.5774  0.5774 -0.0000 -0.5774  0.0000  0.0000  0.0000  0.0000  0.0000  0.0000      0.0000  0.0000  0.0000  0.0000  0.0000  0.0000  0.0000  0.0000  0.0000  0.0000
atom =   7  type =  2  l = 2
 
 onsite density matrix
 
spin component  1
 
  0.9616  0.0004 -0.0011 -0.0004 -0.0000
  0.0004  0.9616 -0.0006  0.0004  0.0010
 -0.0011 -0.0006  0.3523  0.0006 -0.0000
 -0.0004  0.0004  0.0006  0.9616  0.0010
 -0.0000  0.0010 -0.0000  0.0010  0.3523
 
spin component  2
 
  0.0284  0.0001  0.0005 -0.0001  0.0000
  0.0001  0.0284  0.0002  0.0001 -0.0004
  0.0005  0.0002  0.4432 -0.0002  0.0000
 -0.0001  0.0001 -0.0002  0.0284 -0.0004
  0.0000 -0.0004  0.0000 -0.0004  0.4432
 
 occupancies and eigenvectors
 
  o =  0.0282  v =  0.0000  0.0000  0.0000  0.0000  0.0000 -0.5774  0.5773 -0.0000 -0.5774  0.0000      0.0000  0.0000  0.0000  0.0000  0.0000  0.0000  0.0000  0.0000  0.0000  0.0000
  o =  0.0285  v =  0.0000  0.0000  0.0000  0.0000  0.0000 -0.7071 -0.0000  0.0012  0.7071  0.0007      0.0000  0.0000  0.0000  0.0000  0.0000  0.0000  0.0000  0.0000  0.0000  0.0000
  o =  0.0285  v =  0.0000  0.0000  0.0000  0.0000  0.0000  0.4082  0.8165 -0.0007  0.4082  0.0012      0.0000  0.0000  0.0000  0.0000  0.0000  0.0000  0.0000  0.0000  0.0000  0.0000
  o =  0.3523  v = -0.0016  0.0000 -0.8660  0.0016 -0.5000  0.0000  0.0000  0.0000  0.0000  0.0000      0.0000  0.0000  0.0000  0.0000  0.0000  0.0000  0.0000  0.0000  0.0000  0.0000
  o =  0.3523  v = -0.0009 -0.0019 -0.5000 -0.0009  0.8660  0.0000  0.0000  0.0000  0.0000  0.0000      0.0000  0.0000  0.0000  0.0000  0.0000  0.0000  0.0000  0.0000  0.0000  0.0000
  o =  0.4432  v =  0.0000  0.0000  0.0000  0.0000  0.0000  0.0006  0.0012  0.5000  0.0006 -0.8660      0.0000  0.0000  0.0000  0.0000  0.0000  0.0000  0.0000  0.0000  0.0000  0.0000
  o =  0.4432  v =  0.0000  0.0000  0.0000  0.0000  0.0000 -0.0010 -0.0000 -0.8660  0.0010 -0.5000      0.0000  0.0000  0.0000  0.0000  0.0000  0.0000  0.0000  0.0000  0.0000  0.0000
  o =  0.9608  v =  0.5774 -0.5774  0.0000  0.5774 -0.0000  0.0000  0.0000  0.0000  0.0000  0.0000      0.0000  0.0000  0.0000  0.0000  0.0000  0.0000  0.0000  0.0000  0.0000  0.0000
  o =  0.9620  v = -0.4082 -0.8165  0.0012 -0.4082 -0.0020  0.0000  0.0000  0.0000  0.0000  0.0000      0.0000  0.0000  0.0000  0.0000  0.0000  0.0000  0.0000  0.0000  0.0000  0.0000
  o =  0.9620  v = -0.7071 -0.0000  0.0020  0.7071  0.0012  0.0000  0.0000  0.0000  0.0000  0.0000      0.0000  0.0000  0.0000  0.0000  0.0000  0.0000  0.0000  0.0000  0.0000  0.0000
atom =   8  type =  2  l = 2
 
 onsite density matrix
 
spin component  1
 
  0.9616  0.0004 -0.0011 -0.0004 -0.0000
  0.0004  0.9616 -0.0006  0.0004  0.0010
 -0.0011 -0.0006  0.3523  0.0006 -0.0000
 -0.0004  0.0004  0.0006  0.9616  0.0010
 -0.0000  0.0010 -0.0000  0.0010  0.3523
 
spin component  2
 
  0.0284  0.0001  0.0005 -0.0001  0.0000
  0.0001  0.0284  0.0002  0.0001 -0.0004
  0.0005  0.0002  0.4432 -0.0002  0.0000
 -0.0001  0.0001 -0.0002  0.0284 -0.0004
  0.0000 -0.0004  0.0000 -0.0004  0.4432
 
 occupancies and eigenvectors
 
  o =  0.0282  v =  0.0000  0.0000  0.0000  0.0000  0.0000 -0.5774  0.5773 -0.0000 -0.5774  0.0000      0.0000  0.0000  0.0000  0.0000  0.0000  0.0000  0.0000  0.0000  0.0000  0.0000
  o =  0.0285  v =  0.0000  0.0000  0.0000  0.0000  0.0000 -0.7071 -0.0000  0.0012  0.7071  0.0007      0.0000  0.0000  0.0000  0.0000  0.0000  0.0000  0.0000  0.0000  0.0000  0.0000
  o =  0.0285  v =  0.0000  0.0000  0.0000  0.0000  0.0000  0.4082  0.8165 -0.0007  0.4082  0.0012      0.0000  0.0000  0.0000  0.0000  0.0000  0.0000  0.0000  0.0000  0.0000  0.0000
  o =  0.3523  v = -0.0016 -0.0000 -0.8660  0.0016 -0.5000  0.0000  0.0000  0.0000  0.0000  0.0000      0.0000  0.0000  0.0000  0.0000  0.0000  0.0000  0.0000  0.0000  0.0000  0.0000
  o =  0.3523  v = -0.0009 -0.0019 -0.5000 -0.0009  0.8660  0.0000  0.0000  0.0000  0.0000  0.0000      0.0000  0.0000  0.0000  0.0000  0.0000  0.0000  0.0000  0.0000  0.0000  0.0000
  o =  0.4432  v =  0.0000  0.0000  0.0000  0.0000  0.0000  0.0006  0.0012  0.5000  0.0006 -0.8660      0.0000  0.0000  0.0000  0.0000  0.0000  0.0000  0.0000  0.0000  0.0000  0.0000
  o =  0.4432  v =  0.0000  0.0000  0.0000  0.0000  0.0000 -0.0010 -0.0000 -0.8660  0.0010 -0.5000      0.0000  0.0000  0.0000  0.0000  0.0000  0.0000  0.0000  0.0000  0.0000  0.0000
  o =  0.9608  v =  0.5774 -0.5774  0.0000  0.5774 -0.0000  0.0000  0.0000  0.0000  0.0000  0.0000      0.0000  0.0000  0.0000  0.0000  0.0000  0.0000  0.0000  0.0000  0.0000  0.0000
  o =  0.9620  v = -0.4082 -0.8165  0.0012 -0.4082 -0.0020  0.0000  0.0000  0.0000  0.0000  0.0000      0.0000  0.0000  0.0000  0.0000  0.0000  0.0000  0.0000  0.0000  0.0000  0.0000
  o =  0.9620  v = -0.7071  0.0000  0.0020  0.7071  0.0012  0.0000  0.0000  0.0000  0.0000  0.0000      0.0000  0.0000  0.0000  0.0000  0.0000  0.0000  0.0000  0.0000  0.0000  0.0000
atom =   9  type =  3  l = 2
 
 onsite density matrix
 
spin component  1
 
  0.9177  0.0015  0.0030 -0.0015  0.0000
  0.0015  0.9177  0.0015  0.0015 -0.0026
[...]
 -0.000   0.000   0.000   0.000   0.000   0.000   0.000  -0.000  -0.000  -0.001  -0.000  -0.000   0.000   0.000  -0.000   0.000
  0.000   0.000  -0.000  -0.000   0.000   0.000  -0.000   0.000  -0.000   0.000  -0.000   0.001  -0.000   0.000  -0.000   0.000
  0.000   0.000  -0.000  -0.000   0.000  -0.000   0.000   0.000   0.001   0.000   0.000  -0.000  -0.000  -0.001  -0.000  -0.000
 -0.000  -0.000   0.000   0.000  -0.000   0.000   0.000   0.000   0.000   0.001   0.000   0.000  -0.000  -0.000  -0.001  -0.000
  0.000   0.002   0.000  -0.001  -0.000  -0.000   0.001   0.000  -0.002   0.003   0.002  -0.003   0.000   0.001  -0.001  -0.001
 -0.000  -0.002  -0.000  -0.000  -0.001   0.000   0.000   0.001   0.003  -0.002   0.001   0.003  -0.002  -0.001   0.001  -0.000
  0.000   0.000   0.000  -0.000  -0.000  -0.000   0.000   0.000   0.002   0.001   0.028  -0.001  -0.000  -0.001  -0.000  -0.010
  0.000   0.002  -0.001   0.000  -0.000   0.001  -0.000   0.000  -0.003   0.003  -0.001  -0.002  -0.002   0.001  -0.001   0.000
 -0.000  -0.000   0.000   0.000   0.000  -0.000  -0.000  -0.000   0.000  -0.002  -0.000  -0.002   0.028  -0.000   0.001   0.000
 -0.000  -0.001  -0.000  -0.000   0.000   0.000  -0.001  -0.000   0.001  -0.001  -0.001   0.001  -0.000  -0.001   0.000   0.000
  0.000   0.001   0.000   0.000  -0.000  -0.000  -0.000  -0.001  -0.001   0.001  -0.000  -0.001   0.001   0.000  -0.001   0.000
 -0.000  -0.000  -0.000   0.000   0.000   0.000  -0.000  -0.000  -0.001  -0.000  -0.010   0.000   0.000   0.000   0.000   0.004
 -0.000  -0.001  -0.000  -0.000   0.000  -0.001   0.000  -0.000   0.001  -0.001   0.000   0.001   0.001  -0.000   0.000  -0.000
  0.000   0.000  -0.000   0.000  -0.000   0.000   0.000   0.000  -0.000   0.001   0.000   0.001  -0.010   0.000  -0.000  -0.000
 -0.000  -0.000   0.000   0.000  -0.000   0.001   0.000  -0.000  -0.000  -0.001  -0.000  -0.001   0.000   0.000   0.000   0.000
 -0.000  -0.007   0.000   0.000  -0.000  -0.000  -0.000   0.000  -0.001   0.001  -0.000  -0.001   0.000   0.000  -0.000   0.000
 -0.000  -0.000   0.000   0.000  -0.000   0.000   0.000  -0.000   0.001   0.000   0.000  -0.000  -0.000  -0.000  -0.000  -0.000
  0.000   0.000  -0.000  -0.000   0.000  -0.000  -0.001   0.000   0.001   0.000   0.000  -0.000  -0.000  -0.000  -0.000   0.000
  0.000   0.000  -0.000  -0.000   0.000  -0.000  -0.000   0.000  -0.001  -0.000  -0.000   0.000  -0.000   0.000   0.000   0.000
  0.000   0.000   0.000   0.000   0.000   0.000   0.000   0.000   0.000  -0.000  -0.000  -0.000   0.001  -0.000   0.000   0.000
 -0.000  -0.000   0.000   0.000  -0.000   0.000   0.000  -0.001  -0.000   0.001  -0.000   0.001  -0.000   0.000  -0.000   0.000
  0.000   0.000   0.000   0.000  -0.000  -0.001  -0.000   0.000  -0.000   0.001   0.001   0.001  -0.001  -0.000  -0.000  -0.000
 -0.000   0.011  -0.000  -0.000   0.000   0.000   0.000  -0.000   0.002  -0.002   0.000   0.002  -0.000  -0.001   0.001  -0.000
  0.000   0.000   0.000  -0.000  -0.000  -0.001  -0.000   0.000  -0.001  -0.000  -0.001   0.000   0.001   0.000   0.000   0.000
 -0.000  -0.000  -0.000  -0.000   0.000   0.000   0.001  -0.000  -0.001  -0.001  -0.000   0.001   0.000   0.000   0.000   0.000
 -0.000  -0.000  -0.000   0.000   0.000   0.000   0.000  -0.001   0.001   0.000   0.001  -0.000   0.001  -0.000  -0.000  -0.000
  0.000  -0.000   0.000   0.000   0.000  -0.000  -0.000  -0.000  -0.000   0.001   0.000   0.001  -0.002   0.000  -0.000  -0.000
  0.000   0.000   0.000   0.000  -0.000  -0.000  -0.000   0.001  -0.000  -0.001   0.001  -0.001   0.001  -0.000   0.000  -0.000


------------------------ aborting loop because EDIFF is reached ----------------------------------------


 


 total charge     
 
# of ion       s       p       d       f       tot
--------------------------------------------------
    1        1.999   5.698   0.484   0.188   8.368
    2        1.999   5.698   0.484   0.188   8.368
    3        1.999   5.697   0.481   0.187   8.364
    4        1.999   5.698   0.483   0.188   8.369
    5        1.999   5.697   0.481   0.187   8.364
    6        0.356   0.573   4.850   0.000   5.779
    7        0.331   0.511   4.875   0.000   5.718
    8        0.331   0.511   4.875   0.000   5.718
    9        0.390   0.556   8.318   0.000   9.264
   10        0.390   0.556   8.318   0.000   9.264
   11        1.563   3.477   0.000   0.000   5.040
   12        1.560   3.479   0.000   0.000   5.039
   13        1.561   3.476   0.000   0.000   5.038
   14        1.561   3.476   0.000   0.000   5.038
   15        1.560   3.479   0.000   0.000   5.039
   16        1.563   3.442   0.000   0.000   5.005
   17        1.561   3.430   0.000   0.000   4.991
   18        1.561   3.417   0.000   0.000   4.979
   19        1.561   3.417   0.000   0.000   4.979
   20        1.561   3.430   0.000   0.000   4.991
   21        1.561   3.467   0.000   0.000   5.028
   22        1.561   3.462   0.000   0.000   5.023
   23        1.564   3.461   0.000   0.000   5.025
   24        1.561   3.462   0.000   0.000   5.023
   25        1.561   3.467   0.000   0.000   5.028
--------------------------------------------------
tot         35.215  83.040  33.650   0.937 152.841

 


 magnetization (x)
 
# of ion       s       p       d       f       tot
--------------------------------------------------
    1        0.001   0.001   0.009   0.004   0.015
    2        0.001   0.001   0.009   0.004   0.015
    3        0.001   0.001   0.008   0.004   0.014
    4        0.001   0.001   0.010   0.005   0.017
    5        0.001   0.001   0.008   0.004   0.014
    6        0.026   0.040   3.232   0.000   3.298
    7        0.025   0.031   3.572   0.000   3.627
    8        0.025   0.031   3.572   0.000   3.628
    9        0.009  -0.005   1.678   0.000   1.683
   10        0.009  -0.005   1.678   0.000   1.683
   11        0.004  -0.036   0.000   0.000  -0.031
   12        0.005  -0.008   0.000   0.000  -0.003
   13        0.006  -0.018   0.000   0.000  -0.012
   14        0.006  -0.018   0.000   0.000  -0.012
   15        0.005  -0.008   0.000   0.000  -0.003
   16        0.004  -0.037   0.000   0.000  -0.034
   17        0.004  -0.016   0.000   0.000  -0.012
   18        0.005  -0.035   0.000   0.000  -0.030
   19        0.005  -0.035   0.000   0.000  -0.030
   20        0.004  -0.016   0.000   0.000  -0.012
   21        0.006  -0.012   0.000   0.000  -0.006
   22        0.005  -0.010   0.000   0.000  -0.005
   23        0.005  -0.040   0.000   0.000  -0.034
   24        0.005  -0.010   0.000   0.000  -0.005
   25        0.006  -0.012   0.000   0.000  -0.006
--------------------------------------------------
tot          0.173  -0.215  13.778   0.022  13.757

 
    CHARGE:  cpu time    0.1675: real time    0.1679
    FORLOC:  cpu time    0.0097: real time    0.0098
    FORNL :  cpu time    0.9901: real time    0.9932
    STRESS:  cpu time    3.0061: real time    3.0167
    FORCOR:  cpu time    0.0876: real time    0.0879
    FORHAR:  cpu time    0.0175: real time    0.0176
    MIXING:  cpu time    0.0050: real time    0.0050
    OFIELD:  cpu time    0.0001: real time    0.0001

  FORCE on cell =-STRESS in cart. coord.  units (eV):
  Direction    XX          YY          ZZ          XY          YZ          ZX
  --------------------------------------------------------------------------------------
  Alpha Z   814.65470   814.65470   814.65470
  Ewald   -4234.57646 -4234.57646 -4234.57646     8.83043    -8.83043     8.83043
  Hartree   924.88633   924.88637   924.88637     8.62888    -8.62889     8.62888
  E(xc)    -861.46314  -861.46315  -861.46315    -0.00446     0.00447    -0.00446
  Local    -518.86096  -518.86122  -518.86122   -17.53252    17.53327   -17.53252
  n-local   339.92377   339.05509   340.92911     0.71831    -0.20438    -0.93556
  augment   335.39821   335.39761   335.39761     0.03860    -0.03882     0.03860
  Kinetic  3199.12642  3207.27459  3190.91151     4.42295    -0.67261    -5.01536
  Fock        0.00000     0.00000     0.00000     0.00000     0.00000     0.00000
  -------------------------------------------------------------------------------------
  Total      -0.88837    -0.88837    -0.88837    -0.01519     0.01519    -0.01519
  in kB      -4.82158    -4.82158    -4.82158    -0.08245     0.08245    -0.08245
  external pressure =       -4.82 kB  Pullay stress =        0.00 kB


 VOLUME and BASIS-vectors are now :
 -----------------------------------------------------------------------------
  energy-cutoff  :      520.00
  volume of cell :      295.20
      direct lattice vectors                 reciprocal lattice vectors
     3.893175664  0.000000000  3.893175664     0.102734617 -0.102734617  0.154125100
     3.893175664  3.893175664  0.000000000     0.102734617  0.154125100 -0.102734617
    -3.896689943  7.789865597  7.789865597    -0.051344135  0.051344135  0.051344135

  length of vectors
     5.505781824  5.505781824 11.685384228     0.211809701  0.211809701  0.088930651


 FORCES acting on ions
    electron-ion (+dipol)            ewald-force                    non-local-force                 convergence-correction
 -----------------------------------------------------------------------------------------------
   -.376E+02 0.376E+02 0.376E+02   0.373E+02 -.373E+02 -.373E+02   0.210E+00 -.210E+00 -.210E+00   0.340E-01 -.340E-01 -.340E-01
   0.376E+02 -.376E+02 -.376E+02   -.373E+02 0.373E+02 0.373E+02   -.210E+00 0.210E+00 0.210E+00   -.340E-01 0.340E-01 0.340E-01
   -.112E+02 0.112E+02 0.112E+02   0.112E+02 -.112E+02 -.112E+02   0.205E-01 -.205E-01 -.205E-01   0.123E-01 -.123E-01 -.123E-01
   0.146E-04 -.129E-04 -.129E-04   -.137E-10 -.544E-11 -.541E-11   0.108E-18 0.108E-18 0.163E-18   -.387E-05 0.189E-05 0.189E-05
   0.112E+02 -.112E+02 -.112E+02   -.112E+02 0.112E+02 0.112E+02   -.205E-01 0.205E-01 0.205E-01   -.123E-01 0.123E-01 0.123E-01
   -.238E-04 0.160E-04 0.160E-04   -.186E-10 0.188E-11 0.181E-11   0.271E-19 0.203E-19 -.203E-19   0.169E-05 -.172E-05 -.172E-05
   -.191E+02 0.191E+02 0.191E+02   0.186E+02 -.186E+02 -.186E+02   0.569E+00 -.569E+00 -.569E+00   0.200E-01 -.200E-01 -.200E-01
   0.191E+02 -.191E+02 -.191E+02   -.186E+02 0.186E+02 0.186E+02   -.569E+00 0.569E+00 0.569E+00   -.200E-01 0.200E-01 0.200E-01
   -.111E+02 0.111E+02 0.111E+02   0.115E+02 -.115E+02 -.115E+02   -.469E+00 0.469E+00 0.469E+00   0.215E-01 -.215E-01 -.215E-01
   0.111E+02 -.111E+02 -.111E+02   -.115E+02 0.115E+02 0.115E+02   0.469E+00 -.469E+00 -.469E+00   -.215E-01 0.215E-01 0.215E-01
   -.477E-05 -.236E-04 -.179E-04   -.677E-11 0.148E-10 -.396E-10   0.169E-19 0.881E-19 0.136E-18   -.146E-05 0.147E-05 0.146E-05
   -.327E+01 0.327E+01 -.242E+02   0.323E+01 -.323E+01 0.193E+02   0.299E-01 -.299E-01 0.488E+01   0.804E-02 -.804E-02 0.416E-01
   0.131E+02 -.131E+02 -.555E+02   -.133E+02 0.133E+02 0.516E+02   0.171E+00 -.171E+00 0.383E+01   -.174E-01 0.174E-01 0.553E-01
   -.131E+02 0.131E+02 0.555E+02   0.133E+02 -.133E+02 -.516E+02   -.171E+00 0.171E+00 -.383E+01   0.174E-01 -.174E-01 -.553E-01
   0.327E+01 -.327E+01 0.242E+02   -.323E+01 0.323E+01 -.193E+02   -.299E-01 0.299E-01 -.488E+01   -.803E-02 0.803E-02 -.416E-01
   -.477E-05 -.179E-04 -.236E-04   -.789E-11 -.381E-10 0.149E-10   -.407E-19 0.678E-19 0.678E-20   -.146E-05 0.146E-05 0.147E-05
   -.327E+01 -.242E+02 0.327E+01   0.323E+01 0.193E+02 -.323E+01   0.299E-01 0.488E+01 -.299E-01   0.804E-02 0.416E-01 -.804E-02
   0.131E+02 -.555E+02 -.131E+02   -.133E+02 0.516E+02 0.133E+02   0.171E+00 0.383E+01 -.171E+00   -.174E-01 0.553E-01 0.174E-01
   -.131E+02 0.555E+02 0.131E+02   0.133E+02 -.516E+02 -.133E+02   -.171E+00 -.383E+01 0.171E+00   0.174E-01 -.553E-01 -.174E-01
   0.327E+01 0.242E+02 -.327E+01   -.323E+01 -.193E+02 0.323E+01   -.299E-01 -.488E+01 0.299E-01   -.803E-02 -.416E-01 0.803E-02
   -.555E+02 0.131E+02 0.131E+02   0.516E+02 -.133E+02 -.133E+02   0.383E+01 0.171E+00 0.171E+00   0.553E-01 -.174E-01 -.174E-01
   -.242E+02 -.327E+01 -.327E+01   0.193E+02 0.323E+01 0.323E+01   0.488E+01 0.299E-01 0.299E-01   0.416E-01 0.803E-02 0.803E-02
   0.217E-05 -.242E-04 -.242E-04   0.154E-10 0.124E-10 0.125E-10   0.745E-19 0.169E-19 0.169E-19   -.145E-05 0.146E-05 0.146E-05
   0.242E+02 0.327E+01 0.327E+01   -.193E+02 -.323E+01 -.323E+01   -.488E+01 -.299E-01 -.299E-01   -.416E-01 -.804E-02 -.804E-02
   0.555E+02 -.131E+02 -.131E+02   -.516E+02 0.133E+02 0.133E+02   -.383E+01 -.171E+00 -.171E+00   -.553E-01 0.174E-01 0.174E-01
 -----------------------------------------------------------------------------------------------
   -.164E-03 -.828E-04 -.828E-04   0.711E-14 0.320E-13 0.284E-13   -.266E-14 -.178E-14 -.272E-14   0.931E-06 -.147E-05 -.147E-05
 
 
 POSITION                                       TOTAL-FORCE (eV/Angst)
 -----------------------------------------------------------------------------------
      3.86764      7.81188      7.81188        -0.072645      0.072645      0.072645
      3.91590      3.87046      3.87046         0.072645     -0.072645     -0.072645
     -0.00648      7.79283      7.79283         0.013829     -0.013829     -0.013829
     -0.00141      3.89458      3.89458        -0.000000      0.000000      0.000000
     -3.89302      7.78620      7.78620        -0.013829      0.013829      0.013829
      1.94342      9.73610      9.73610        -0.000000      0.000000      0.000000
      1.93539      5.85096      5.85096         0.030243     -0.030243     -0.030243
      5.84815      5.83138      5.83138        -0.030243      0.030243      0.030243
     -1.95071      5.84388      5.84388        -0.000893      0.000893      0.000893
      1.94790      1.94528      1.94528         0.000893     -0.000893     -0.000893
      1.94518      5.84117      3.89458        -0.000000      0.000000      0.000000
      1.94491      9.73461      7.82628        -0.006116      0.006116      0.018110
      1.94117      1.95200      3.91097         0.013421     -0.013421     -0.007357
      1.94919      5.83716      7.77137        -0.013421      0.013421      0.007357
      1.94194      9.73759     11.64592         0.006116     -0.006116     -0.018110
      1.94518      3.89458      5.84117        -0.000000      0.000000      0.000000
      1.94491      7.82628      9.73461        -0.006116      0.018110      0.006116
      1.94117      3.91097      1.95200         0.013421     -0.007357     -0.013421
      1.94919      7.77137      5.83716        -0.013421      0.007357      0.013421
      1.94194     11.64592      9.73759         0.006116     -0.018110     -0.006116
      0.01498      5.83716      5.83716        -0.007357      0.013421      0.013421
      0.03361      9.73759      9.73759         0.018110     -0.006116     -0.006116
      3.89177      5.84117      5.84117        -0.000000      0.000000      0.000000
      3.85324      9.73461      9.73461        -0.018110      0.006116      0.006116
     -0.01779      1.95200      1.95200         0.007357     -0.013421     -0.013421
 -----------------------------------------------------------------------------------
    total drift:                               -0.000163     -0.000084     -0.000084


--------------------------------------------------------------------------------------------------------



  FREE ENERGIE OF THE ION-ELECTRON SYSTEM (eV)
  ---------------------------------------------------
  free  energy   TOTEN  =      -187.02991892 eV

  energy  without entropy=     -187.02991892  energy(sigma->0) =     -187.02991892
 


--------------------------------------------------------------------------------------------------------


    POTLOK:  cpu time    0.0909: real time    0.0914


--------------------------------------------------------------------------------------------------------


     LOOP+:  cpu time   85.3342: real time   85.6820
    4ORBIT:  cpu time    0.0000: real time    0.0000
 


 total charge     
 
# of ion       s       p       d       f       tot
--------------------------------------------------
    1        1.999   5.698   0.484   0.188   8.368
    2        1.999   5.698   0.484   0.188   8.368
    3        1.999   5.697   0.481   0.187   8.364
    4        1.999   5.698   0.483   0.188   8.369
    5        1.999   5.697   0.481   0.187   8.364
    6        0.356   0.573   4.850   0.000   5.779
    7        0.331   0.511   4.875   0.000   5.718
    8        0.331   0.511   4.875   0.000   5.718
    9        0.390   0.556   8.318   0.000   9.264
   10        0.390   0.556   8.318   0.000   9.264
   11        1.563   3.477   0.000   0.000   5.040
   12        1.560   3.479   0.000   0.000   5.039
   13        1.561   3.476   0.000   0.000   5.038
   14        1.561   3.476   0.000   0.000   5.038
   15        1.560   3.479   0.000   0.000   5.039
   16        1.563   3.442   0.000   0.000   5.005
   17        1.561   3.430   0.000   0.000   4.991
   18        1.561   3.417   0.000   0.000   4.979
   19        1.561   3.417   0.000   0.000   4.979
   20        1.561   3.430   0.000   0.000   4.991
   21        1.561   3.467   0.000   0.000   5.028
   22        1.561   3.462   0.000   0.000   5.023
   23        1.564   3.461   0.000   0.000   5.025
   24        1.561   3.462   0.000   0.000   5.023
   25        1.561   3.467   0.000   0.000   5.028
--------------------------------------------------
tot         35.215  83.040  33.650   0.937 152.841

 


 magnetization (x)
 
# of ion       s       p       d       f       tot
--------------------------------------------------
    1        0.001   0.001   0.009   0.004   0.015
    2        0.001   0.001   0.009   0.004   0.015
    3        0.001   0.001   0.008   0.004   0.014
    4        0.001   0.001   0.010   0.005   0.017
    5        0.001   0.001   0.008   0.004   0.014
    6        0.026   0.040   3.232   0.000   3.298
    7        0.025   0.031   3.572   0.000   3.627
    8        0.025   0.031   3.572   0.000   3.628
    9        0.009  -0.005   1.678   0.000   1.683
   10        0.009  -0.005   1.678   0.000   1.683
   11        0.004  -0.036   0.000   0.000  -0.031
   12        0.005  -0.008   0.000   0.000  -0.003
   13        0.006  -0.018   0.000   0.000  -0.012
   14        0.006  -0.018   0.000   0.000  -0.012
   15        0.005  -0.008   0.000   0.000  -0.003
   16        0.004  -0.037   0.000   0.000  -0.034
   17        0.004  -0.016   0.000   0.000  -0.012
   18        0.005  -0.035   0.000   0.000  -0.030
   19        0.005  -0.035   0.000   0.000  -0.030
   20        0.004  -0.016   0.000   0.000  -0.012
   21        0.006  -0.012   0.000   0.000  -0.006
   22        0.005  -0.010   0.000   0.000  -0.005
   23        0.005  -0.040   0.000   0.000  -0.034
   24        0.005  -0.010   0.000   0.000  -0.005
   25        0.006  -0.012   0.000   0.000  -0.006
--------------------------------------------------
tot          0.173  -0.215  13.778   0.022  13.757

 
 BZINTS: Fermi energy:  8.261946;186.000000 electrons
         Band energy:-298.287462;  BLOECHL correction: -0.006784

 total amount of memory used by VASP MPI-rank0    67326. kBytes
=======================================================================

   base      :      30000. kBytes
   nonlr-proj:       7081. kBytes
   fftplans  :       3030. kBytes
   grid      :       8843. kBytes
   one-center:        294. kBytes
   wavefun   :      18078. kBytes
 
  
  
 General timing and accounting informations for this job:
 ========================================================
  
                  Total CPU time used (sec):       92.564
                            User time (sec):       90.070
                          System time (sec):        2.494
                         Elapsed time (sec):       93.069
  
                   Maximum memory used (kb):      105504.
                   Average memory used (kb):           0.
  
                          Minor page faults:        41004
                          Major page faults:            0
                 Voluntary context switches:         1021
