 vasp.5.4.4.18Apr17-6-g9f103f2a35 (build Oct 03 2018 13:58:34) complex          
  
 executed on             LinuxIFC date 2019.06.04  01:08:06
 running on   40 total cores
 distrk:  each k-point on   20 cores,    2 groups
 distr:  one band on NCORES_PER_BAND=  10 cores,    2 groups


--------------------------------------------------------------------------------------------------------


 INCAR:
 POTCAR:    PAW_PBE La 06Sep2000                  
 POTCAR:    PAW_PBE Mn 06Sep2000                  
 POTCAR:    PAW_PBE Ni 02Aug2007                  
 POTCAR:    PAW_PBE O 08Apr2002                   

 ----------------------------------------------------------------------------- 
|                                                                             |
|           W    W    AA    RRRRR   N    N  II  N    N   GGGG   !!!           |
|           W    W   A  A   R    R  NN   N  II  NN   N  G    G  !!!           |
|           W    W  A    A  R    R  N N  N  II  N N  N  G       !!!           |
|           W WW W  AAAAAA  RRRRR   N  N N  II  N  N N  G  GGG   !            |
|           WW  WW  A    A  R   R   N   NN  II  N   NN  G    G                |
|           W    W  A    A  R    R  N    N  II  N    N   GGGG   !!!           |
|                                                                             |
|      You have enabled k-point parallelism (KPAR>1).                         |
|      This developmental code was originally  written by Paul Kent at ORNL,  |
|      and carefully double checked in Vienna.                                |
|      GW as well as linear response parallelism added by Martijn Marsman     |
|      and Georg Kresse.                                                      |
|      Carefully verify results versus KPAR=1.                                |
|      Report problems to Paul Kent and Vienna.                               |
|                                                                             |
 ----------------------------------------------------------------------------- 

 POTCAR:    PAW_PBE La 06Sep2000                  
   VRHFIN =La : [core=Kr4d]                                                     
   LEXCH  = PE                                                                  
   EATOM  =   865.9763 eV,   63.6475 Ry                                         
                                                                                
   TITEL  = PAW_PBE La 06Sep2000                                                
   LULTRA =        F    use ultrasoft PP ?                                      
   IUNSCR =        1    unscreen: 0-lin 1-nonlin 2-no                           
   RPACOR =    2.300    partial core radius                                     
   POMASS =  138.900; ZVAL   =   11.000    mass and valenz                      
   RCORE  =    2.800    outmost cutoff radius                                   
   RWIGS  =    2.900; RWIGS  =    1.535    wigner-seitz radius (au A)           
   ENMAX  =  219.292; ENMIN  =  164.469 eV                                      
   RCLOC  =    1.601    cutoff for local pot                                    
   LCOR   =        T    correct aug charges                                     
   LPAW   =        T    paw PP                                                  
   EAUG   =  583.575                                                            
   DEXC   =    0.000                                                            
   RMAX   =    2.853    core radius for proj-oper                               
   RAUG   =    1.300    factor for augmentation sphere                          
   RDEP   =    2.802    radius for radial grids                                 
   RDEPT  =    2.156    core radius for aug-charge                              
                                                                                
   Atomic configuration                                                         
   14 entries                                                                   
     n  l   j            E        occ.                                          
     1  0  0.50    -38741.0879   2.0000                                         
     2  0  0.50     -6166.6801   2.0000                                         
     2  1  1.50     -5526.1593   6.0000                                         
     3  0  0.50     -1319.0200   2.0000                                         
     3  1  1.50     -1114.5963   6.0000                                         
     3  2  2.50      -821.1793  10.0000                                         
     4  0  0.50      -266.3851   2.0000                                         
     4  1  1.50      -199.9276   6.0000                                         
     4  2  2.50      -103.8239  10.0000                                         
     5  0  0.50       -38.9172   2.0000                                         
     6  0  0.50        -3.6792   2.0000                                         
     5  1  1.50       -22.3948   6.0000                                         
     5  2  2.50        -3.0911   0.9999                                         
     4  3  2.50        -4.3603   0.0001                                         
   Description                                                                  
     l       E           TYP  RCUT    TYP  RCUT                                 
     0    -38.9171645     23  2.800                                             
     0     -3.6792381     23  2.800                                             
     1    -22.3948300     23  2.500                                             
     1     27.2116520     23  2.500                                             
     2     -3.0910934     23  2.500                                             
     2      1.0119135     23  2.500                                             
     3     -4.3602911     23  2.800                                             
     3     -5.7208737     23  2.800                                             
  local pseudopotential read in
  partial core-charges read in
  partial kinetic energy density read in
  atomic valenz-charges read in
  non local Contribution for L=           0  read in
    real space projection operators read in
  non local Contribution for L=           0  read in
    real space projection operators read in
  non local Contribution for L=           1  read in
    real space projection operators read in
  non local Contribution for L=           1  read in
    real space projection operators read in
  non local Contribution for L=           2  read in
    real space projection operators read in
  non local Contribution for L=           2  read in
    real space projection operators read in
  non local Contribution for L=           3  read in
    real space projection operators read in
  non local Contribution for L=           3  read in
    real space projection operators read in
    PAW grid and wavefunctions read in
 
   number of l-projection  operators is LMAX  =           8
   number of lm-projection operators is LMMAX =          32
 
 POTCAR:    PAW_PBE Mn 06Sep2000                  
   VRHFIN =Mn: d6 s1                                                            
   LEXCH  = PE                                                                  
   EATOM  =   416.7541 eV,   30.6306 Ry                                         
                                                                                
   TITEL  = PAW_PBE Mn 06Sep2000                                                
   LULTRA =        F    use ultrasoft PP ?                                      
   IUNSCR =        1    unscreen: 0-lin 1-nonlin 2-no                           
   RPACOR =    2.000    partial core radius                                     
   POMASS =   54.938; ZVAL   =    7.000    mass and valenz                      
   RCORE  =    2.300    outmost cutoff radius                                   
   RWIGS  =    2.500; RWIGS  =    1.323    wigner-seitz radius (au A)           
   ENMAX  =  269.864; ENMIN  =  202.398 eV                                      
   RCLOC  =    1.725    cutoff for local pot                                    
   LCOR   =        T    correct aug charges                                     
   LPAW   =        T    paw PP                                                  
   EAUG   =  500.711                                                            
   DEXC   =    0.000                                                            
   RMAX   =    2.343    core radius for proj-oper                               
   RAUG   =    1.300    factor for augmentation sphere                          
   RDEP   =    2.338    radius for radial grids                                 
   RDEPT  =    1.911    core radius for aug-charge                              
                                                                                
   Atomic configuration                                                         
    9 entries                                                                   
     n  l   j            E        occ.                                          
     1  0  0.50     -6424.8288   2.0000                                         
     2  0  0.50      -739.1154   2.0000                                         
     2  1  1.50      -625.3949   6.0000                                         
     3  0  0.50       -81.6100   2.0000                                         
     3  1  1.50       -50.4667   6.0000                                         
     3  2  2.50        -3.3745   6.0000                                         
     4  0  0.50        -4.1331   1.0000                                         
     4  1  0.50        -4.0817   0.0000                                         
     4  3  2.50        -1.3606   0.0000                                         
   Description                                                                  
     l       E           TYP  RCUT    TYP  RCUT                                 
     2     -3.3744664     23  2.300                                             
     2     -4.7350490     23  2.300                                             
     0     -4.1331408     23  2.300                                             
     0      7.6656614     23  2.300                                             
     1     -2.7211652     23  2.300                                             
     1     20.4087390     23  2.300                                             
  local pseudopotential read in
  partial core-charges read in
  partial kinetic energy density read in
  atomic valenz-charges read in
  non local Contribution for L=           2  read in
    real space projection operators read in
  non local Contribution for L=           2  read in
    real space projection operators read in
  non local Contribution for L=           0  read in
    real space projection operators read in
  non local Contribution for L=           0  read in
    real space projection operators read in
  non local Contribution for L=           1  read in
    real space projection operators read in
  non local Contribution for L=           1  read in
    real space projection operators read in
    PAW grid and wavefunctions read in
 
   number of l-projection  operators is LMAX  =           6
   number of lm-projection operators is LMMAX =          18
 
 POTCAR:    PAW_PBE Ni 02Aug2007                  
   VRHFIN =Ni:                                                                  
   LEXCH  = PE                                                                  
   EATOM  =  1077.6739 eV,   79.2068 Ry                                         
                                                                                
   TITEL  = PAW_PBE Ni 02Aug2007                                                
   LULTRA =        F    use ultrasoft PP ?                                      
   IUNSCR =        1    unscreen: 0-lin 1-nonlin 2-no                           
   RPACOR =    2.000    partial core radius                                     
   POMASS =   58.690; ZVAL   =   10.000    mass and valenz                      
   RCORE  =    2.300    outmost cutoff radius                                   
   RWIGS  =    2.430; RWIGS  =    1.286    wigner-seitz radius (au A)           
   ENMAX  =  269.532; ENMIN  =  202.149 eV                                      
   RCLOC  =    1.201    cutoff for local pot                                    
   LCOR   =        T    correct aug charges                                     
   LPAW   =        T    paw PP                                                  
   EAUG   =  544.565                                                            
   DEXC   =    0.000                                                            
   RMAX   =    2.357    core radius for proj-oper                               
   RAUG   =    1.300    factor for augmentation sphere                          
   RDEP   =    2.390    radius for radial grids                                 
   RDEPT  =    1.838    core radius for aug-charge                              
                                                                                
   Atomic configuration                                                         
    9 entries                                                                   
     n  l   j            E        occ.                                          
     1  0  0.50     -8206.4253   2.0000                                         
     2  0  0.50      -976.1748   2.0000                                         
     2  1  1.50      -839.0571   6.0000                                         
     3  0  0.50      -105.9991   2.0000                                         
     3  1  1.50       -66.4603   6.0000                                         
     3  2  2.50        -4.6458   9.0000                                         
     4  0  0.50        -4.4926   1.0000                                         
     4  1  1.50        -4.0817   0.0000                                         
     4  3  2.50        -1.3606   0.0000                                         
   Description                                                                  
     l       E           TYP  RCUT    TYP  RCUT                                 
     2     -4.6457903     23  2.300                                             
     2     -6.0063729     23  2.300                                             
     0     -4.4925590     23  2.300                                             
     0      5.0102601     23  2.300                                             
     1     -2.7211652     23  2.300                                             
     1     16.5183231     23  2.300                                             
  local pseudopotential read in
  partial core-charges read in
  partial kinetic energy density read in
  atomic valenz-charges read in
  non local Contribution for L=           2  read in
    real space projection operators read in
  non local Contribution for L=           2  read in
    real space projection operators read in
  non local Contribution for L=           0  read in
    real space projection operators read in
  non local Contribution for L=           0  read in
    real space projection operators read in
  non local Contribution for L=           1  read in
    real space projection operators read in
  non local Contribution for L=           1  read in
    real space projection operators read in
    PAW grid and wavefunctions read in
 
   number of l-projection  operators is LMAX  =           6
   number of lm-projection operators is LMMAX =          18
 
 POTCAR:    PAW_PBE O 08Apr2002                   
   VRHFIN =O: s2p4                                                              
   LEXCH  = PE                                                                  
   EATOM  =   432.3788 eV,   31.7789 Ry                                         
                                                                                
   TITEL  = PAW_PBE O 08Apr2002                                                 
   LULTRA =        F    use ultrasoft PP ?                                      
   IUNSCR =        1    unscreen: 0-lin 1-nonlin 2-no                           
   RPACOR =    1.200    partial core radius                                     
   POMASS =   16.000; ZVAL   =    6.000    mass and valenz                      
   RCORE  =    1.520    outmost cutoff radius                                   
   RWIGS  =    1.550; RWIGS  =    0.820    wigner-seitz radius (au A)           
   ENMAX  =  400.000; ENMIN  =  300.000 eV                                      
   ICORE  =        2    local potential                                         
   LCOR   =        T    correct aug charges                                     
   LPAW   =        T    paw PP                                                  
   EAUG   =  605.392                                                            
   DEXC   =    0.000                                                            
   RMAX   =    1.553    core radius for proj-oper                               
   RAUG   =    1.300    factor for augmentation sphere                          
   RDEP   =    1.550    radius for radial grids                                 
   RDEPT  =    1.329    core radius for aug-charge                              
                                                                                
   Atomic configuration                                                         
    4 entries                                                                   
     n  l   j            E        occ.                                          
     1  0  0.50      -514.6923   2.0000                                         
     2  0  0.50       -23.9615   2.0000                                         
     2  1  0.50        -9.0305   4.0000                                         
     3  2  1.50        -9.5241   0.0000                                         
   Description                                                                  
     l       E           TYP  RCUT    TYP  RCUT                                 
     0    -23.9615318     23  1.200                                             
     0     -9.5240782     23  1.200                                             
     1     -9.0304911     23  1.520                                             
     1      8.1634956     23  1.520                                             
     2     -9.5240782      7  1.500                                             
  local pseudopotential read in
  partial core-charges read in
  partial kinetic energy density read in
  kinetic energy density of atom read in
  atomic valenz-charges read in
  non local Contribution for L=           0  read in
    real space projection operators read in
  non local Contribution for L=           0  read in
    real space projection operators read in
  non local Contribution for L=           1  read in
    real space projection operators read in
  non local Contribution for L=           1  read in
    real space projection operators read in
    PAW grid and wavefunctions read in
 
   number of l-projection  operators is LMAX  =           4
   number of lm-projection operators is LMMAX =           8
 
 Optimization of the real space projectors (new method)

 maximal supplied QI-value         = 13.42
 optimisation between [QCUT,QGAM] = [ 11.67, 23.35] = [ 38.16,152.62] Ry 
 Optimized for a Real-space Cutoff    1.63 Angstroem

   l    n(q)    QCUT    max X(q) W(low)/X(q) W(high)/X(q)  e(spline) 
   0     11    11.673    13.882    0.27E-04    0.79E-05    0.11E-06
   0     11    11.673    12.184    0.39E-04    0.13E-04    0.19E-06
   1     11    11.673     4.523    0.73E-05    0.76E-05    0.12E-06
   1     11    11.673     4.424    0.87E-05    0.13E-04    0.19E-06
   2     10    11.673    52.481    0.65E-04    0.36E-04    0.18E-06
   2     10    11.673    38.501    0.61E-04    0.33E-04    0.17E-06
   3     10    11.673    65.631    0.17E-03    0.14E-03    0.37E-06
   3     10    11.673    56.854    0.17E-03    0.14E-03    0.37E-06
 Optimization of the real space projectors (new method)

 maximal supplied QI-value         = 16.25
 optimisation between [QCUT,QGAM] = [ 11.54, 23.24] = [ 37.28,151.24] Ry 
 Optimized for a Real-space Cutoff    1.53 Angstroem

   l    n(q)    QCUT    max X(q) W(low)/X(q) W(high)/X(q)  e(spline) 
   2     10    11.539   110.144    0.12E-03    0.13E-03    0.25E-06
   2     10    11.539   103.200    0.12E-03    0.13E-03    0.25E-06
   0     11    11.539    68.437    0.46E-04    0.21E-04    0.32E-06
   0     11    11.539    33.971    0.37E-04    0.19E-04    0.29E-06
   1     10    11.539    17.065    0.51E-04    0.22E-04    0.13E-06
   1     10    11.539    12.540    0.41E-04    0.18E-04    0.11E-06
 Optimization of the real space projectors (new method)

 maximal supplied QI-value         = 16.25
 optimisation between [QCUT,QGAM] = [ 11.54, 23.24] = [ 37.28,151.24] Ry 
 Optimized for a Real-space Cutoff    1.45 Angstroem

   l    n(q)    QCUT    max X(q) W(low)/X(q) W(high)/X(q)  e(spline) 
   2      9    11.539    60.317    0.19E-03    0.47E-04    0.16E-06
   2      9    11.539    55.921    0.19E-03    0.48E-04    0.16E-06
   0     10    11.539    51.690    0.80E-04    0.50E-04    0.24E-06
   0     10    11.539    30.015    0.73E-04    0.45E-04    0.22E-06
   1     10    11.539    18.849    0.87E-04    0.16E-03    0.71E-07
   1     10    11.539    14.624    0.73E-04    0.13E-03    0.64E-07
 Optimization of the real space projectors (new method)

 maximal supplied QI-value         = 24.76
 optimisation between [QCUT,QGAM] = [ 11.64, 23.27] = [ 37.91,151.63] Ry 
 Optimized for a Real-space Cutoff    1.14 Angstroem

   l    n(q)    QCUT    max X(q) W(low)/X(q) W(high)/X(q)  e(spline) 
   0      8    11.635    20.381    0.10E-03    0.33E-03    0.24E-06
   0      8    11.635    15.268    0.11E-03    0.35E-03    0.26E-06
   1      7    11.635     5.964    0.24E-03    0.31E-03    0.30E-06
   1      7    11.635     5.382    0.22E-03    0.25E-03    0.26E-06
  PAW_PBE La 06Sep2000                  :
 energy of atom  1       EATOM= -865.9763
 kinetic energy error for atom=    0.0009 (will be added to EATOM!!)
  PAW_PBE Mn 06Sep2000                  :
 energy of atom  2       EATOM= -416.7541
 kinetic energy error for atom=    0.0024 (will be added to EATOM!!)
  PAW_PBE Ni 02Aug2007                  :
 energy of atom  3       EATOM=-1077.6739
 kinetic energy error for atom=    0.0030 (will be added to EATOM!!)
  PAW_PBE O 08Apr2002                   :
 energy of atom  4       EATOM= -432.3788
 kinetic energy error for atom=    0.0208 (will be added to EATOM!!)
 
 
 POSCAR: SCEL4_1_1_4_0_0_0/2                     
  positions in direct lattice
  velocities in cartesian coordinates
 exchange correlation table for  LEXCH =        8
   RHO(1)=    0.500       N(1)  =     2000
   RHO(2)=  100.500       N(2)  =     4000
 


--------------------------------------------------------------------------------------------------------


 ion  position               nearest neighbor table
   1  0.000  0.000  0.252-  15 2.71  19 2.71  19 2.71  15 2.71  11 2.73  11 2.73  11 2.73  11 2.73
                            16 2.76  20 2.76  16 2.76  20 2.76   7 3.33   7 3.33   7 3.33   7 3.33
   2  0.000  0.000  0.498-  15 2.71  19 2.71  19 2.71  15 2.71  10 2.73  10 2.73  10 2.73  10 2.73
                            18 2.76  14 2.76  18 2.76  14 2.76   7 3.33   7 3.33   7 3.33   7 3.33
   3  0.000  0.000  0.743-  14 2.64  18 2.64  18 2.64  14 2.64   9 2.73   9 2.73   9 2.73   9 2.73
                            17 2.81  13 2.81  17 2.81  13 2.81   8 3.29   8 3.29   8 3.29   8 3.29
   4  0.000  0.000  0.007-  16 2.64  20 2.64  20 2.64  16 2.64  12 2.73  12 2.73  12 2.73  12 2.73
                            17 2.81  13 2.81  17 2.81  13 2.81   6 3.29   6 3.29   6 3.29   6 3.29
   5  0.500  0.500  0.875-   9 1.89  12 1.89  13 1.93  17 1.93  13 1.93  17 1.93   3 3.41   4 3.41
                             3 3.41   3 3.41   4 3.41   4 3.41   3 3.41   4 3.41
   6  0.500  0.500  0.126-  16 1.93  20 1.93  16 1.93  20 1.93  11 1.95  12 1.98   4 3.29   4 3.29
                             4 3.29   4 3.29   1 3.35   1 3.35   1 3.35   1 3.35
   7  0.500  0.500  0.375-  10 1.90  11 1.90  15 1.93  19 1.93  15 1.93  19 1.93   1 3.33   2 3.33
                             1 3.33   1 3.33   2 3.33   2 3.33   1 3.33   2 3.33
   8  0.500  0.500  0.624-  14 1.93  18 1.93  14 1.93  18 1.93  10 1.95   9 1.98   3 3.29   3 3.29
                             3 3.29   3 3.29   2 3.35   2 3.35   2 3.35   2 3.35
   9  0.500  0.500  0.752-   5 1.89   8 1.98   3 2.73   3 2.73   3 2.73   3 2.73
  10  0.500  0.500  0.498-   7 1.90   8 1.95   2 2.73   2 2.73   2 2.73   2 2.73
  11  0.500  0.500  0.252-   7 1.90   6 1.95   1 2.73   1 2.73   1 2.73   1 2.73
  12  0.500  0.500  0.998-   5 1.89   6 1.98   4 2.73   4 2.73   4 2.73   4 2.73
  13  0.500  0.000  0.875-   5 1.93   5 1.93   3 2.81   4 2.81   3 2.81   4 2.81
  14  0.500  0.000  0.626-   8 1.93   8 1.93   3 2.64   3 2.64   2 2.76   2 2.76
  15  0.500  0.000  0.375-   7 1.93   7 1.93   1 2.71   2 2.71   1 2.71   2 2.71
  16  0.500  0.000  0.124-   6 1.93   6 1.93   4 2.64   4 2.64   1 2.76   1 2.76
  17  0.000  0.500  0.875-   5 1.93   5 1.93   3 2.81   3 2.81   4 2.81   4 2.81
  18  0.000  0.500  0.626-   8 1.93   8 1.93   3 2.64   3 2.64   2 2.76   2 2.76
  19  0.000  0.500  0.375-   7 1.93   7 1.93   1 2.71   1 2.71   2 2.71   2 2.71
  20  0.000  0.500  0.124-   6 1.93   6 1.93   4 2.64   4 2.64   1 2.76   1 2.76
 
  LATTYP: Found a simple tetragonal cell.
 ALAT       =     3.8578594745
 C/A-ratio  =     4.0033153617
  
  Lattice vectors:
  
 A1 = (   3.8578594745,   0.0000000000,   0.0000000000)
 A2 = (   0.0000000000,   3.8578594745,   0.0000000000)
 A3 = (   0.0000000000,   0.0000000000,  15.4442280974)


Analysis of symmetry for initial positions (statically):
=====================================================================
 Subroutine PRICEL returns:
 Original cell was already a primitive cell.
 

 Routine SETGRP: Setting up the symmetry group for a 
 simple tetragonal supercell.


 Subroutine GETGRP returns: Found 16 space group operations
 (whereof  8 operations were pure point group operations)
 out of a pool of 16 trial point group operations.


The static configuration has the point symmetry C_4v.
 The point group associated with its full space group is D_4h.


Analysis of symmetry for dynamics (positions and initial velocities):
=====================================================================
 Subroutine PRICEL returns:
 Original cell was already a primitive cell.
 

 Routine SETGRP: Setting up the symmetry group for a 
 simple tetragonal supercell.


 Subroutine GETGRP returns: Found 16 space group operations
 (whereof  8 operations were pure point group operations)
 out of a pool of 16 trial point group operations.


The dynamic configuration has the point symmetry C_4v.
 The point group associated with its full space group is D_4h.


Analysis of structural, dynamic, and magnetic symmetry:
=====================================================================
 Subroutine PRICEL returns:
 Original cell was already a primitive cell.
 

 Routine SETGRP: Setting up the symmetry group for a 
 simple tetragonal supercell.


 Subroutine GETGRP returns: Found 16 space group operations
 (whereof  8 operations were pure point group operations)
 out of a pool of 16 trial point group operations.


The magnetic configuration has the point symmetry C_4v.
 The point group associated with its full space group is D_4h.


 Subroutine INISYM returns: Found 16 space group operations
 (whereof  8 operations are pure point group operations),
 and found     1 'primitive' translations

 
 
 KPOINTS: Automatic mesh                          

Automatic generation of k-mesh.
 generate k-points for:    5    5    1
Space group operators:
 irot       det(A)        alpha          n_x          n_y          n_z        tau_x        tau_y        tau_z
    1     1.000000     0.000000     1.000000     0.000000     0.000000     0.000000     0.000000     0.000000
    2     1.000000    90.000000     0.000000     0.000000    -1.000000     0.000000     0.000000     0.000000
    3     1.000000   180.000000     0.000000     0.000000     1.000000     0.000000     0.000000     0.000000
    4     1.000000    90.000000     0.000000     0.000000     1.000000     0.000000     0.000000     0.000000
    5    -1.000000   180.000000     0.000000     1.000000     0.000000     0.000000     0.000000     0.000000
    6    -1.000000   180.000000     0.707107     0.707107     0.000000     0.000000     0.000000     0.000000
    7    -1.000000   180.000000     1.000000     0.000000     0.000000     0.000000     0.000000     0.000000
    8    -1.000000   180.000000     0.707107    -0.707107     0.000000     0.000000     0.000000     0.000000
    9    -1.000000     0.000000     1.000000     0.000000     0.000000     0.000000     0.000000     0.750000
   10    -1.000000    90.000000     0.000000     0.000000    -1.000000     0.000000     0.000000     0.750000
   11    -1.000000   180.000000     0.000000     0.000000     1.000000     0.000000     0.000000     0.750000
   12    -1.000000    90.000000     0.000000     0.000000     1.000000     0.000000     0.000000     0.750000
   13     1.000000   180.000000     0.000000     1.000000     0.000000     0.000000     0.000000     0.750000
   14     1.000000   180.000000     0.707107     0.707107     0.000000     0.000000     0.000000     0.750000
   15     1.000000   180.000000     1.000000     0.000000     0.000000     0.000000     0.000000     0.750000
   16     1.000000   180.000000     0.707107    -0.707107     0.000000     0.000000     0.000000     0.750000
 
 Subroutine IBZKPT returns following result:
 ===========================================
 
 Found      6 irreducible k-points:
 
 Following reciprocal coordinates:
            Coordinates               Weight
  0.000000  0.000000  0.000000      1.000000
  0.200000  0.000000  0.000000      4.000000
  0.400000  0.000000  0.000000      4.000000
  0.200000  0.200000  0.000000      4.000000
  0.400000  0.200000  0.000000      8.000000
  0.400000  0.400000  0.000000      4.000000
 
 Following cartesian coordinates:
            Coordinates               Weight
  0.000000  0.000000  0.000000      1.000000
  0.051842  0.000000  0.000000      4.000000
  0.103684  0.000000  0.000000      4.000000
  0.051842  0.051842  0.000000      4.000000
  0.103684  0.051842  0.000000      8.000000
  0.103684  0.103684  0.000000      4.000000
 
 TETIRR: Found     31 inequivalent tetrahedra from      150


--------------------------------------------------------------------------------------------------------




 Dimension of arrays:
   k-points           NKPTS =      6   k-points in BZ     NKDIM =      6   number of bands    NBANDS=     98
   number of dos      NEDOS =    301   number of ions     NIONS =     20
   non local maximal  LDIM  =      8   non local SUM 2l+1 LMDIM =     32
   total plane-waves  NPLWV = 108000
   max r-space proj   IRMAX =   8529   max aug-charges    IRDMAX=  24748
   dimension x,y,z NGX =    30 NGY =   30 NGZ =  120
   dimension x,y,z NGXF=    60 NGYF=   60 NGZF=  240
   support grid    NGXF=    60 NGYF=   60 NGZF=  240
   ions per type =               4   1   3  12
   NGX,Y,Z   is equivalent  to a cutoff of  12.93, 12.93, 12.92 a.u.
   NGXF,Y,Z  is equivalent  to a cutoff of  25.86, 25.86, 25.83 a.u.

 SYSTEM =  final                                   
 POSCAR =  SCEL4_1_1_4_0_0_0/2                     

 Startparameter for this run:
   NWRITE =      2    write-flag & timer
   PREC   = accura    normal or accurate (medium, high low for compatibility)
   ISTART =      0    job   : 0-new  1-cont  2-samecut
   ICHARG =      1    charge: 1-file 2-atom 10-const
   ISPIN  =      2    spin polarized calculation?
   LNONCOLLINEAR =      F non collinear calculations
   LSORBIT =      F    spin-orbit coupling
   INIWAV =      1    electr: 0-lowe 1-rand  2-diag
   LASPH  =      F    aspherical Exc in radial PAW
   METAGGA=      F    non-selfconsistent MetaGGA calc.

 Electronic Relaxation 1
   ENCUT  =  520.0 eV  38.22 Ry    6.18 a.u.   7.17  7.17 28.72*2*pi/ulx,y,z
   ENINI  =  520.0     initial cutoff
   ENAUG  =  605.4 eV  augmentation charge cutoff
   NELM   =    100;   NELMIN=  2; NELMDL= -5     # of ELM steps 
   EDIFF  = 0.1E-02   stopping-criterion for ELM
   LREAL  =      T    real-space projection
   NLSPLINE    = F    spline interpolate recip. space projectors
   LCOMPAT=      F    compatible to vasp.4.4
   GGA_COMPAT  = T    GGA compatible to vasp.4.4-vasp.4.6
   LMAXPAW     = -100 max onsite density
   LMAXMIX     =    6 max onsite mixed and CHGCAR
   VOSKOWN=      0    Vosko Wilk Nusair interpolation
   ROPT   =   -0.00025  -0.00025  -0.00025  -0.00025
 Ionic relaxation
   EDIFFG = 0.1E-01   stopping-criterion for IOM
   NSW    =      0    number of steps for IOM
   NBLOCK =      1;   KBLOCK =      1    inner block; outer block 
   IBRION =     -1    ionic relax: 0-MD 1-quasi-New 2-CG
   NFREE  =      0    steps in history (QN), initial steepest desc. (CG)
   ISIF   =      2    stress and relaxation
   IWAVPR =     10    prediction:  0-non 1-charg 2-wave 3-comb
   ISYM   =      2    0-nonsym 1-usesym 2-fastsym
   LCORR  =      T    Harris-Foulkes like correction to forces

   POTIM  = 0.5000    time-step for ionic-motion
   TEIN   =    0.0    initial temperature
   TEBEG  =    0.0;   TEEND  =   0.0 temperature during run
   SMASS  =  -3.00    Nose mass-parameter (am)
   estimated Nose-frequenzy (Omega)   =  0.10E-29 period in steps =****** mass=  -0.340E-27a.u.
   SCALEE = 1.0000    scale energy and forces
   NPACO  =    256;   APACO  = 16.0  distance and # of slots for P.C.
   PSTRESS=    0.0 pullay stress

  Mass of Ions in am
   POMASS = 138.90 54.94 58.69 16.00
  Ionic Valenz
   ZVAL   =  11.00  7.00 10.00  6.00
  Atomic Wigner-Seitz radii
   RWIGS  =  -1.00 -1.00 -1.00 -1.00
  virtual crystal weights 
   VCA    =   1.00  1.00  1.00  1.00
   NELECT =     153.0000    total number of electrons
   NUPDOWN=      -1.0000    fix difference up-down

 DOS related values:
   EMIN   =  10.00;   EMAX   =-10.00  energy-range for DOS
   EFERMI =   0.00
   ISMEAR =    -5;   SIGMA  =   0.05  broadening in eV -4-tet -1-fermi 0-gaus

 Electronic relaxation 2 (details)
   IALGO  =     68    algorithm
   LDIAG  =      T    sub-space diagonalisation (order eigenvalues)
   LSUBROT=      F    optimize rotation matrix (better conditioning)
   TURBO    =      0    0=normal 1=particle mesh
   IRESTART =      0    0=no restart 2=restart with 2 vectors
   NREBOOT  =      0    no. of reboots
   NMIN     =      0    reboot dimension
   EREF     =   0.00    reference energy to select bands
   IMIX   =      4    mixing-type and parameters
     AMIX     =   0.40;   BMIX     =  1.00
     AMIX_MAG =   1.60;   BMIX_MAG =  1.00
     AMIN     =   0.10
     WC   =   100.;   INIMIX=   1;  MIXPRE=   1;  MAXMIX= -45

 Intra band minimization:
   WEIMIN = 0.0000     energy-eigenvalue tresh-hold
   EBREAK =  0.26E-05  absolut break condition
   DEPER  =   0.30     relativ break condition  

   TIME   =   0.40     timestep for ELM

  volume/ion in A,a.u.               =      11.49        77.56
  Fermi-wavevector in a.u.,A,eV,Ry     =   1.429395  2.701165 27.799022  2.043170
  Thomas-Fermi vector in A             =   2.549353
 
 Write flags
   LWAVE        =      F    write WAVECAR
   LDOWNSAMPLE  =      F    k-point downsampling of WAVECAR
   LCHARG       =      T    write CHGCAR
   LVTOT        =      F    write LOCPOT, total local potential
   LVHAR        =      F    write LOCPOT, Hartree potential only
   LELF         =      F    write electronic localiz. function (ELF)
   LORBIT       =     11    0 simple, 1 ext, 2 COOP (PROOUT), +10 PAW based schemes


 Dipole corrections
   LMONO  =      F    monopole corrections only (constant potential shift)
   LDIPOL =      F    correct potential (dipole corrections)
   IDIPOL =      0    1-x, 2-y, 3-z, 4-all directions 
   EPSILON=  1.0000000 bulk dielectric constant

 LDA+U is selected, type is set to LDAUTYPE =  2
   angular momentum for each species LDAUL =     0    2    2    0
   U (eV)           for each species LDAUU =   0.0  3.9  6.2  0.0
   J (eV)           for each species LDAUJ =   0.0  0.0  0.0  0.0
 Exchange correlation treatment:
   GGA     =    --    GGA type
   LEXCH   =     8    internal setting for exchange type
   VOSKOWN=      0    Vosko Wilk Nusair interpolation
   LHFCALC =     F    Hartree Fock is set to
   LHFONE  =     F    Hartree Fock one center treatment
   AEXX    =    0.0000 exact exchange contribution

 Linear response parameters
   LEPSILON=     F    determine dielectric tensor
   LRPA    =     F    only Hartree local field effects (RPA)
   LNABLA  =     F    use nabla operator in PAW spheres
   LVEL    =     F    velocity operator in full k-point grid
   LINTERFAST=   F  fast interpolation
   KINTER  =     0    interpolate to denser k-point grid
   CSHIFT  =0.1000    complex shift for real part using Kramers Kronig
   OMEGAMAX=  -1.0    maximum frequency
   DEG_THRESHOLD= 0.2000000E-02 threshold for treating states as degnerate
   RTIME   =   -0.100 relaxation time in fs
  (WPLASMAI=    0.000 imaginary part of plasma frequency in eV, 0.658/RTIME)
   DFIELD  = 0.0000000 0.0000000 0.0000000 field for delta impulse in time
 
 Orbital magnetization related:
   ORBITALMAG=     F  switch on orbital magnetization
   LCHIMAG   =     F  perturbation theory with respect to B field
   DQ        =  0.001000  dq finite difference perturbation B field
   LLRAUG    =     F  two centre corrections for induced B field



--------------------------------------------------------------------------------------------------------


 Static calculation
 charge density and potential will be updated during run
 spin polarized calculation
 RMM-DIIS sequential band-by-band and
  variant of blocked Davidson during initial phase
 perform sub-space diagonalisation
    before iterative eigenvector-optimisation
 modified Broyden-mixing scheme, WC =      100.0
 initial mixing is a Kerker type mixing with AMIX =  0.4000 and BMIX =      1.0000
 Hartree-type preconditioning will be used
 using additional bands           21
 real space projection scheme for non local part
 use partial core corrections
 calculate Harris-corrections to forces 
   (improved forces if not selfconsistent)
 use gradient corrections 
 use of overlap-Matrix (Vanderbilt PP)
 Fermi weights with tetrahedron method with Bloechl corrections


--------------------------------------------------------------------------------------------------------


  energy-cutoff  :      520.00
  volume of cell :      229.86
      direct lattice vectors                 reciprocal lattice vectors
     3.857859474  0.000000000  0.000000000     0.259211101  0.000000000  0.000000000
     0.000000000  3.857859474  0.000000000     0.000000000  0.259211101  0.000000000
     0.000000000  0.000000000 15.444228097     0.000000000  0.000000000  0.064749108

  length of vectors
     3.857859474  3.857859474 15.444228097     0.259211101  0.259211101  0.064749108


 
 k-points in units of 2pi/SCALE and weight: Automatic mesh                          
   0.00000000  0.00000000  0.00000000       0.040
   0.05184222  0.00000000  0.00000000       0.160
   0.10368444  0.00000000  0.00000000       0.160
   0.05184222  0.05184222  0.00000000       0.160
   0.10368444  0.05184222  0.00000000       0.320
   0.10368444  0.10368444  0.00000000       0.160
 
 k-points in reciprocal lattice and weights: Automatic mesh                          
   0.00000000  0.00000000  0.00000000       0.040
   0.20000000  0.00000000  0.00000000       0.160
   0.40000000  0.00000000  0.00000000       0.160
   0.20000000  0.20000000  0.00000000       0.160
   0.40000000  0.20000000  0.00000000       0.320
   0.40000000  0.40000000  0.00000000       0.160
 
 position of ions in fractional coordinates (direct lattice) 
   0.00000000  0.00000000  0.25169037
   0.00000000  0.00000000  0.49830963
   0.00000000  0.00000000  0.74282838
   0.00000000  0.00000000  0.00717162
   0.50000000  0.50000000  0.87500000
   0.50000000  0.50000000  0.12579808
   0.50000000  0.50000000  0.37500000
   0.50000000  0.50000000  0.62420192
   0.50000000  0.50000000  0.75231853
   0.50000000  0.50000000  0.49803832
   0.50000000  0.50000000  0.25196168
   0.50000000  0.50000000  0.99768147
   0.50000000  0.00000000  0.87500000
   0.50000000  0.00000000  0.62625529
   0.50000000  0.00000000  0.37500000
   0.50000000  0.00000000  0.12374471
   0.00000000  0.50000000  0.87500000
   0.00000000  0.50000000  0.62625529
   0.00000000  0.50000000  0.37500000
   0.00000000  0.50000000  0.12374471
 
 position of ions in cartesian coordinates  (Angst):
   0.00000000  0.00000000  3.88716347
   0.00000000  0.00000000  7.69600760
   0.00000000  0.00000000 11.47241101
   0.00000000  0.00000000  0.11076006
   1.92892974  1.92892974 13.51369959
   1.92892974  1.92892974  1.94285421
   1.92892974  1.92892974  5.79158554
   1.92892974  1.92892974  9.64031687
   1.92892974  1.92892974 11.61897893
   1.92892974  1.92892974  7.69181744
   1.92892974  1.92892974  3.89135363
   1.92892974  1.92892974 15.40842024
   1.92892974  0.00000000 13.51369959
   1.92892974  0.00000000  9.67202955
   1.92892974  0.00000000  5.79158554
   1.92892974  0.00000000  1.91114152
   0.00000000  1.92892974 13.51369959
   0.00000000  1.92892974  9.67202955
   0.00000000  1.92892974  5.79158554
   0.00000000  1.92892974  1.91114152
 


--------------------------------------------------------------------------------------------------------


 k-point  1 :   0.0000 0.0000 0.0000  plane waves:    6145
 k-point  2 :   0.2000 0.0000 0.0000  plane waves:    6204
 k-point  3 :   0.4000 0.0000 0.0000  plane waves:    6192
 k-point  4 :   0.2000 0.2000 0.0000  plane waves:    6196
 k-point  5 :   0.4000 0.2000 0.0000  plane waves:    6177
 k-point  6 :   0.4000 0.4000 0.0000  plane waves:    6194

 maximum and minimum number of plane-waves per node :       636      608

 maximum number of plane-waves:      6204
 maximum index in each direction: 
   IXMAX=    7   IYMAX=    7   IZMAX=   28
   IXMIN=   -7   IYMIN=   -7   IZMIN=  -28


 real space projection operators:
  total allocation   :      13782.62 KBytes
  max/ min on nodes  :       1438.06       1334.59


 parallel 3D FFT for wavefunctions:
    minimum data exchange during FFTs selected (reduces bandwidth)
 parallel 3D FFT for charge:
    minimum data exchange during FFTs selected (reduces bandwidth)


 total amount of memory used by VASP MPI-rank0    47901. kBytes
=======================================================================

   base      :      30000. kBytes
   nonlr-proj:       4671. kBytes
   fftplans  :       1783. kBytes
   grid      :       5042. kBytes
   one-center:        196. kBytes
   wavefun   :       6209. kBytes
 
     INWAV:  cpu time    0.0000: real time    0.0000
 Broyden mixing: mesh for mixing (old mesh)
   NGX = 15   NGY = 15   NGZ = 57
  (NGX  = 60   NGY  = 60   NGZ  =240)
  gives a total of  12825 points

 initial charge density was supplied:
 charge density of overlapping atoms calculated
 number of electron     153.0000000 magnetization      13.0000000
 keeping initial charge density in first step


--------------------------------------------------------------------------------------------------------


 Maximum index for non-local projection operator          855
 Maximum index for augmentation-charges         1000 (set IRDMAX)


--------------------------------------------------------------------------------------------------------


 First call to EWALD:  gamma=   0.289
 Maximum number of real-space cells 4x 4x 1
 Maximum number of reciprocal cells 2x 2x 6

    FEWALD:  cpu time    0.0017: real time    0.0017


--------------------------------------- Iteration      1(   1)  ---------------------------------------


    POTLOK:  cpu time    0.0483: real time    0.0495
    SETDIJ:  cpu time    0.0127: real time    0.0130
atom =   1  type =  1  l = 0
 
 onsite density matrix
 
spin component  1
 
  1.0989
 
spin component  2
 
  1.0989
 
 occupancies and eigenvectors
 
  o =  1.0989  v =  1.0000  0.0000      0.0000  0.0000
  o =  1.0989  v =  0.0000  1.0000      0.0000  0.0000
atom =   2  type =  1  l = 0
 
 onsite density matrix
 
spin component  1
 
  1.0989
 
spin component  2
 
  1.0989
 
 occupancies and eigenvectors
 
  o =  1.0989  v =  1.0000  0.0000      0.0000  0.0000
  o =  1.0989  v =  0.0000  1.0000      0.0000  0.0000
atom =   3  type =  1  l = 0
 
 onsite density matrix
 
spin component  1
 
  1.0989
 
spin component  2
 
  1.0989
 
 occupancies and eigenvectors
 
  o =  1.0989  v =  1.0000  0.0000      0.0000  0.0000
  o =  1.0989  v =  0.0000  1.0000      0.0000  0.0000
atom =   4  type =  1  l = 0
 
 onsite density matrix
 
spin component  1
 
  1.0989
 
spin component  2
 
  1.0989
 
 occupancies and eigenvectors
 
  o =  1.0989  v =  1.0000  0.0000      0.0000  0.0000
  o =  1.0989  v =  0.0000  1.0000      0.0000  0.0000
atom =   5  type =  2  l = 2
 
 onsite density matrix
 
spin component  1
 
  0.8272  0.0000  0.0000  0.0000  0.0000
  0.0000  0.8272  0.0000  0.0000  0.0000
  0.0000  0.0000  0.8272  0.0000  0.0000
  0.0000  0.0000  0.0000  0.8272  0.0000
  0.0000  0.0000  0.0000  0.0000  0.8272
 
spin component  2
 
  0.2256  0.0000  0.0000  0.0000  0.0000
  0.0000  0.2256  0.0000  0.0000  0.0000
  0.0000  0.0000  0.2256  0.0000  0.0000
  0.0000  0.0000  0.0000  0.2256  0.0000
  0.0000  0.0000  0.0000  0.0000  0.2256
 
 occupancies and eigenvectors
 
  o =  0.2256  v =  0.0000  0.0000  0.0000  0.0000  0.0000  0.0000  0.0000  1.0000  0.0000  0.0000      0.0000  0.0000  0.0000  0.0000  0.0000  0.0000  0.0000  0.0000  0.0000  0.0000
  o =  0.2256  v =  0.0000  0.0000  0.0000  0.0000  0.0000  1.0000  0.0000  0.0000  0.0000  0.0000      0.0000  0.0000  0.0000  0.0000  0.0000  0.0000  0.0000  0.0000  0.0000  0.0000
  o =  0.2256  v =  0.0000  0.0000  0.0000  0.0000  0.0000  0.0000  1.0000  0.0000  0.0000  0.0000      0.0000  0.0000  0.0000  0.0000  0.0000  0.0000  0.0000  0.0000  0.0000  0.0000
  o =  0.2256  v =  0.0000  0.0000  0.0000  0.0000  0.0000  0.0000  0.0000  0.0000  1.0000  0.0000      0.0000  0.0000  0.0000  0.0000  0.0000  0.0000  0.0000  0.0000  0.0000  0.0000
  o =  0.2256  v =  0.0000  0.0000  0.0000  0.0000  0.0000  0.0000  0.0000  0.0000  0.0000  1.0000      0.0000  0.0000  0.0000  0.0000  0.0000  0.0000  0.0000  0.0000  0.0000  0.0000
  o =  0.8272  v =  0.0000  1.0000  0.0000  0.0000  0.0000  0.0000  0.0000  0.0000  0.0000  0.0000      0.0000  0.0000  0.0000  0.0000  0.0000  0.0000  0.0000  0.0000  0.0000  0.0000
  o =  0.8272  v =  0.0000  0.0000  1.0000  0.0000  0.0000  0.0000  0.0000  0.0000  0.0000  0.0000      0.0000  0.0000  0.0000  0.0000  0.0000  0.0000  0.0000  0.0000  0.0000  0.0000
  o =  0.8272  v =  1.0000  0.0000  0.0000  0.0000  0.0000  0.0000  0.0000  0.0000  0.0000  0.0000      0.0000  0.0000  0.0000  0.0000  0.0000  0.0000  0.0000  0.0000  0.0000  0.0000
  o =  0.8272  v =  0.0000  0.0000  0.0000  1.0000  0.0000  0.0000  0.0000  0.0000  0.0000  0.0000      0.0000  0.0000  0.0000  0.0000  0.0000  0.0000  0.0000  0.0000  0.0000  0.0000
  o =  0.8272  v =  0.0000  0.0000  0.0000  0.0000  1.0000  0.0000  0.0000  0.0000  0.0000  0.0000      0.0000  0.0000  0.0000  0.0000  0.0000  0.0000  0.0000  0.0000  0.0000  0.0000
atom =   6  type =  3  l = 2
 
 onsite density matrix
 
spin component  1
 
  1.1008  0.0000  0.0000  0.0000  0.0000
  0.0000  1.1008  0.0000  0.0000  0.0000
  0.0000  0.0000  1.1008  0.0000  0.0000
  0.0000  0.0000  0.0000  1.1008  0.0000
  0.0000  0.0000  0.0000  0.0000  1.1008
 
spin component  2
 
  0.5927  0.0000  0.0000  0.0000  0.0000
  0.0000  0.5927  0.0000  0.0000  0.0000
  0.0000  0.0000  0.5927  0.0000  0.0000
  0.0000  0.0000  0.0000  0.5927  0.0000
  0.0000  0.0000  0.0000  0.0000  0.5927
 
 occupancies and eigenvectors
 
  o =  0.5927  v =  0.0000  0.0000  0.0000  0.0000  0.0000  1.0000  0.0000  0.0000  0.0000  0.0000      0.0000  0.0000  0.0000  0.0000  0.0000  0.0000  0.0000  0.0000  0.0000  0.0000
  o =  0.5927  v =  0.0000  0.0000  0.0000  0.0000  0.0000  0.0000  1.0000  0.0000  0.0000  0.0000      0.0000  0.0000  0.0000  0.0000  0.0000  0.0000  0.0000  0.0000  0.0000  0.0000
  o =  0.5927  v =  0.0000  0.0000  0.0000  0.0000  0.0000  0.0000  0.0000  1.0000  0.0000  0.0000      0.0000  0.0000  0.0000  0.0000  0.0000  0.0000  0.0000  0.0000  0.0000  0.0000
  o =  0.5927  v =  0.0000  0.0000  0.0000  0.0000  0.0000  0.0000  0.0000  0.0000  1.0000  0.0000      0.0000  0.0000  0.0000  0.0000  0.0000  0.0000  0.0000  0.0000  0.0000  0.0000
  o =  0.5927  v =  0.0000  0.0000  0.0000  0.0000  0.0000  0.0000  0.0000  0.0000  0.0000  1.0000      0.0000  0.0000  0.0000  0.0000  0.0000  0.0000  0.0000  0.0000  0.0000  0.0000
  o =  1.1008  v =  1.0000  0.0000  0.0000  0.0000  0.0000  0.0000  0.0000  0.0000  0.0000  0.0000      0.0000  0.0000  0.0000  0.0000  0.0000  0.0000  0.0000  0.0000  0.0000  0.0000
  o =  1.1008  v =  0.0000  1.0000  0.0000  0.0000  0.0000  0.0000  0.0000  0.0000  0.0000  0.0000      0.0000  0.0000  0.0000  0.0000  0.0000  0.0000  0.0000  0.0000  0.0000  0.0000
  o =  1.1008  v =  0.0000  0.0000  1.0000  0.0000  0.0000  0.0000  0.0000  0.0000  0.0000  0.0000      0.0000  0.0000  0.0000  0.0000  0.0000  0.0000  0.0000  0.0000  0.0000  0.0000
  o =  1.1008  v =  0.0000  0.0000  0.0000  1.0000  0.0000  0.0000  0.0000  0.0000  0.0000  0.0000      0.0000  0.0000  0.0000  0.0000  0.0000  0.0000  0.0000  0.0000  0.0000  0.0000
  o =  1.1008  v =  0.0000  0.0000  0.0000  0.0000  1.0000  0.0000  0.0000  0.0000  0.0000  0.0000      0.0000  0.0000  0.0000  0.0000  0.0000  0.0000  0.0000  0.0000  0.0000  0.0000
atom =   7  type =  3  l = 2
 
 onsite density matrix
 
spin component  1
 
  1.1008  0.0000  0.0000  0.0000  0.0000
  0.0000  1.1008  0.0000  0.0000  0.0000
  0.0000  0.0000  1.1008  0.0000  0.0000
  0.0000  0.0000  0.0000  1.1008  0.0000
  0.0000  0.0000  0.0000  0.0000  1.1008
 
spin component  2
 
  0.5927  0.0000  0.0000  0.0000  0.0000
  0.0000  0.5927  0.0000  0.0000  0.0000
  0.0000  0.0000  0.5927  0.0000  0.0000
  0.0000  0.0000  0.0000  0.5927  0.0000
  0.0000  0.0000  0.0000  0.0000  0.5927
 
 occupancies and eigenvectors
 
  o =  0.5927  v =  0.0000  0.0000  0.0000  0.0000  0.0000  1.0000  0.0000  0.0000  0.0000  0.0000      0.0000  0.0000  0.0000  0.0000  0.0000  0.0000  0.0000  0.0000  0.0000  0.0000
  o =  0.5927  v =  0.0000  0.0000  0.0000  0.0000  0.0000  0.0000  1.0000  0.0000  0.0000  0.0000      0.0000  0.0000  0.0000  0.0000  0.0000  0.0000  0.0000  0.0000  0.0000  0.0000
  o =  0.5927  v =  0.0000  0.0000  0.0000  0.0000  0.0000  0.0000  0.0000  1.0000  0.0000  0.0000      0.0000  0.0000  0.0000  0.0000  0.0000  0.0000  0.0000  0.0000  0.0000  0.0000
  o =  0.5927  v =  0.0000  0.0000  0.0000  0.0000  0.0000  0.0000  0.0000  0.0000  1.0000  0.0000      0.0000  0.0000  0.0000  0.0000  0.0000  0.0000  0.0000  0.0000  0.0000  0.0000
  o =  0.5927  v =  0.0000  0.0000  0.0000  0.0000  0.0000  0.0000  0.0000  0.0000  0.0000  1.0000      0.0000  0.0000  0.0000  0.0000  0.0000  0.0000  0.0000  0.0000  0.0000  0.0000
  o =  1.1008  v =  1.0000  0.0000  0.0000  0.0000  0.0000  0.0000  0.0000  0.0000  0.0000  0.0000      0.0000  0.0000  0.0000  0.0000  0.0000  0.0000  0.0000  0.0000  0.0000  0.0000
  o =  1.1008  v =  0.0000  1.0000  0.0000  0.0000  0.0000  0.0000  0.0000  0.0000  0.0000  0.0000      0.0000  0.0000  0.0000  0.0000  0.0000  0.0000  0.0000  0.0000  0.0000  0.0000
  o =  1.1008  v =  0.0000  0.0000  1.0000  0.0000  0.0000  0.0000  0.0000  0.0000  0.0000  0.0000      0.0000  0.0000  0.0000  0.0000  0.0000  0.0000  0.0000  0.0000  0.0000  0.0000
  o =  1.1008  v =  0.0000  0.0000  0.0000  1.0000  0.0000  0.0000  0.0000  0.0000  0.0000  0.0000      0.0000  0.0000  0.0000  0.0000  0.0000  0.0000  0.0000  0.0000  0.0000  0.0000
  o =  1.1008  v =  0.0000  0.0000  0.0000  0.0000  1.0000  0.0000  0.0000  0.0000  0.0000  0.0000      0.0000  0.0000  0.0000  0.0000  0.0000  0.0000  0.0000  0.0000  0.0000  0.0000
atom =   8  type =  3  l = 2
 
 onsite density matrix
 
spin component  1
 
  1.1008  0.0000  0.0000  0.0000  0.0000
  0.0000  1.1008  0.0000  0.0000  0.0000
  0.0000  0.0000  1.1008  0.0000  0.0000
  0.0000  0.0000  0.0000  1.1008  0.0000
  0.0000  0.0000  0.0000  0.0000  1.1008
 
spin component  2
 
  0.5927  0.0000  0.0000  0.0000  0.0000
  0.0000  0.5927  0.0000  0.0000  0.0000
  0.0000  0.0000  0.5927  0.0000  0.0000
  0.0000  0.0000  0.0000  0.5927  0.0000
  0.0000  0.0000  0.0000  0.0000  0.5927
 
 occupancies and eigenvectors
 
  o =  0.5927  v =  0.0000  0.0000  0.0000  0.0000  0.0000  1.0000  0.0000  0.0000  0.0000  0.0000      0.0000  0.0000  0.0000  0.0000  0.0000  0.0000  0.0000  0.0000  0.0000  0.0000
  o =  0.5927  v =  0.0000  0.0000  0.0000  0.0000  0.0000  0.0000  1.0000  0.0000  0.0000  0.0000      0.0000  0.0000  0.0000  0.0000  0.0000  0.0000  0.0000  0.0000  0.0000  0.0000
  o =  0.5927  v =  0.0000  0.0000  0.0000  0.0000  0.0000  0.0000  0.0000  1.0000  0.0000  0.0000      0.0000  0.0000  0.0000  0.0000  0.0000  0.0000  0.0000  0.0000  0.0000  0.0000
  o =  0.5927  v =  0.0000  0.0000  0.0000  0.0000  0.0000  0.0000  0.0000  0.0000  1.0000  0.0000      0.0000  0.0000  0.0000  0.0000  0.0000  0.0000  0.0000  0.0000  0.0000  0.0000
  o =  0.5927  v =  0.0000  0.0000  0.0000  0.0000  0.0000  0.0000  0.0000  0.0000  0.0000  1.0000      0.0000  0.0000  0.0000  0.0000  0.0000  0.0000  0.0000  0.0000  0.0000  0.0000
  o =  1.1008  v =  1.0000  0.0000  0.0000  0.0000  0.0000  0.0000  0.0000  0.0000  0.0000  0.0000      0.0000  0.0000  0.0000  0.0000  0.0000  0.0000  0.0000  0.0000  0.0000  0.0000
  o =  1.1008  v =  0.0000  1.0000  0.0000  0.0000  0.0000  0.0000  0.0000  0.0000  0.0000  0.0000      0.0000  0.0000  0.0000  0.0000  0.0000  0.0000  0.0000  0.0000  0.0000  0.0000
  o =  1.1008  v =  0.0000  0.0000  1.0000  0.0000  0.0000  0.0000  0.0000  0.0000  0.0000  0.0000      0.0000  0.0000  0.0000  0.0000  0.0000  0.0000  0.0000  0.0000  0.0000  0.0000
  o =  1.1008  v =  0.0000  0.0000  0.0000  1.0000  0.0000  0.0000  0.0000  0.0000  0.0000  0.0000      0.0000  0.0000  0.0000  0.0000  0.0000  0.0000  0.0000  0.0000  0.0000  0.0000
  o =  1.1008  v =  0.0000  0.0000  0.0000  0.0000  1.0000  0.0000  0.0000  0.0000  0.0000  0.0000      0.0000  0.0000  0.0000  0.0000  0.0000  0.0000  0.0000  0.0000  0.0000  0.0000
atom =   9  type =  4  l = 0
 
 onsite density matrix
 
spin component  1
 
  0.8190
 
spin component  2
 
  0.8190
 
 occupancies and eigenvectors
 
  o =  0.8190  v =  1.0000  0.0000      0.0000  0.0000
  o =  0.8190  v =  0.0000  1.0000      0.0000  0.0000
atom =  10  type =  4  l = 0
 
 onsite density matrix
 
spin component  1
 
  0.8190
 
spin component  2
 
  0.8190
 
 occupancies and eigenvectors
 
  o =  0.8190  v =  1.0000  0.0000      0.0000  0.0000
  o =  0.8190  v =  0.0000  1.0000      0.0000  0.0000
atom =  11  type =  4  l = 0
 
 onsite density matrix
 
spin component  1
 
  0.8190
 
spin component  2
 
  0.8190
 
 occupancies and eigenvectors
 
  o =  0.8190  v =  1.0000  0.0000      0.0000  0.0000
  o =  0.8190  v =  0.0000  1.0000      0.0000  0.0000
atom =  12  type =  4  l = 0
 
 onsite density matrix
 
spin component  1
 
  0.8190
 
spin component  2
 
  0.8190
 
 occupancies and eigenvectors
 
  o =  0.8190  v =  1.0000  0.0000      0.0000  0.0000
  o =  0.8190  v =  0.0000  1.0000      0.0000  0.0000
atom =  13  type =  4  l = 0
 
 onsite density matrix
 
spin component  1
 
  0.8190
 
spin component  2
 
  0.8190
 
 occupancies and eigenvectors
 
  o =  0.8190  v =  1.0000  0.0000      0.0000  0.0000
  o =  0.8190  v =  0.0000  1.0000      0.0000  0.0000
atom =  14  type =  4  l = 0
 
 onsite density matrix
 
spin component  1
 
  0.8190
 
spin component  2
 
  0.8190
 
 occupancies and eigenvectors
 
  o =  0.8190  v =  1.0000  0.0000      0.0000  0.0000
  o =  0.8190  v =  0.0000  1.0000      0.0000  0.0000
atom =  15  type =  4  l = 0
 
 onsite density matrix
 
spin component  1
 
  0.8190
 
spin component  2
 
  0.8190
 
 occupancies and eigenvectors
 
  o =  0.8190  v =  1.0000  0.0000      0.0000  0.0000
  o =  0.8190  v =  0.0000  1.0000      0.0000  0.0000
atom =  16  type =  4  l = 0
 
 onsite density matrix
 
spin component  1
 
  0.8190
 
spin component  2
 
  0.8190
 
 occupancies and eigenvectors
 
  o =  0.8190  v =  1.0000  0.0000      0.0000  0.0000
  o =  0.8190  v =  0.0000  1.0000      0.0000  0.0000
atom =  17  type =  4  l = 0
 
 onsite density matrix
 
spin component  1
 
  0.8190
 
spin component  2
 
  0.8190
 
 occupancies and eigenvectors
 
  o =  0.8190  v =  1.0000  0.0000      0.0000  0.0000
  o =  0.8190  v =  0.0000  1.0000      0.0000  0.0000
atom =  18  type =  4  l = 0
 
 onsite density matrix
 
spin component  1
 
  0.8190
 
spin component  2
 
  0.8190
 
 occupancies and eigenvectors
 
  o =  0.8190  v =  1.0000  0.0000      0.0000  0.0000
  o =  0.8190  v =  0.0000  1.0000      0.0000  0.0000
atom =  19  type =  4  l = 0
 
 onsite density matrix
 
spin component  1
 
  0.8190
 
spin component  2
 
  0.8190
 
 occupancies and eigenvectors
 
  o =  0.8190  v =  1.0000  0.0000      0.0000  0.0000
  o =  0.8190  v =  0.0000  1.0000      0.0000  0.0000
atom =  20  type =  4  l = 0
 
 onsite density matrix
 
spin component  1
 
  0.8190
 
spin component  2
 
  0.8190
 
 occupancies and eigenvectors
 
  o =  0.8190  v =  1.0000  0.0000      0.0000  0.0000
  o =  0.8190  v =  0.0000  1.0000      0.0000  0.0000
     EDDAV:  cpu time    0.8467: real time    0.8503
 BZINTS: Fermi energy: 30.034856;153.000000 electrons
         Band energy:2202.809949;  BLOECHL correction: -0.315233
       DOS:  cpu time    0.0081: real time    0.0124
    --------------------------------------------
      LOOP:  cpu time    0.9158: real time    0.9251

 eigenvalue-minimisations  :  2512
 total energy-change (2. order) : 0.2274727E+04  (-0.5598493E+04)
 number of electron     153.0000000 magnetization      13.0000000
 augmentation part      153.0000000 magnetization      13.0000000

 Free energy of the ion-electron system (eV)
  ---------------------------------------------------
  alpha Z        PSCENC =       662.52413014
  Ewald energy   TEWEN  =    -10729.34552588
  -Hartree energ DENC   =     -2585.09534520
  -exchange      EXHF   =         0.00000000
  -V(xc)+E(xc)   XCENC  =       546.31530369
  PAW double counting   =     10024.85533752   -10149.29831327
  entropy T*S    EENTRO =         0.00000000
  eigenvalues    EBANDS =      2202.80994879
  atomic energy  EATOM  =     12301.96174248
  Solvation  Ediel_sol  =         0.00000000
  ---------------------------------------------------
  free energy    TOTEN  =      2274.72727826 eV

  energy without entropy =     2274.72727826  energy(sigma->0) =     2274.72727826


--------------------------------------------------------------------------------------------------------




--------------------------------------- Iteration      1(   2)  ---------------------------------------


     EDDAV:  cpu time    0.8696: real time    0.8740
 BZINTS: Fermi energy: 16.061851;153.000000 electrons
         Band energy: 648.438377;  BLOECHL correction: -0.034233
       DOS:  cpu time    0.0067: real time    0.0067
    --------------------------------------------
      LOOP:  cpu time    0.8763: real time    0.8808

 eigenvalue-minimisations  :  2696
 total energy-change (2. order) :-0.1554372E+04  (-0.1413394E+04)
 number of electron     153.0000000 magnetization      13.0000000
 augmentation part      153.0000000 magnetization      13.0000000

 Free energy of the ion-electron system (eV)
  ---------------------------------------------------
  alpha Z        PSCENC =       662.52413014
  Ewald energy   TEWEN  =    -10729.34552588
  -Hartree energ DENC   =     -2585.09534520
  -exchange      EXHF   =         0.00000000
  -V(xc)+E(xc)   XCENC  =       546.31530369
  PAW double counting   =     10024.85533752   -10149.29831327
  entropy T*S    EENTRO =         0.00000000
  eigenvalues    EBANDS =       648.43837654
  atomic energy  EATOM  =     12301.96174248
  Solvation  Ediel_sol  =         0.00000000
  ---------------------------------------------------
  free energy    TOTEN  =       720.35570601 eV

  energy without entropy =      720.35570601  energy(sigma->0) =      720.35570601


--------------------------------------------------------------------------------------------------------




--------------------------------------- Iteration      1(   3)  ---------------------------------------


     EDDAV:  cpu time    0.8906: real time    0.8934
 BZINTS: Fermi energy: 12.382358;153.000000 electrons
         Band energy:  33.465255;  BLOECHL correction: -0.007713
       DOS:  cpu time    0.0080: real time    0.0080
    --------------------------------------------
      LOOP:  cpu time    0.8987: real time    0.9014

 eigenvalue-minimisations  :  2712
 total energy-change (2. order) :-0.6149731E+03  (-0.5613547E+03)
 number of electron     153.0000000 magnetization      13.0000000
 augmentation part      153.0000000 magnetization      13.0000000

 Free energy of the ion-electron system (eV)
  ---------------------------------------------------
  alpha Z        PSCENC =       662.52413014
  Ewald energy   TEWEN  =    -10729.34552588
  -Hartree energ DENC   =     -2585.09534520
  -exchange      EXHF   =         0.00000000
  -V(xc)+E(xc)   XCENC  =       546.31530369
  PAW double counting   =     10024.85533752   -10149.29831327
  entropy T*S    EENTRO =         0.00000000
  eigenvalues    EBANDS =        33.46525467
  atomic energy  EATOM  =     12301.96174248
  Solvation  Ediel_sol  =         0.00000000
  ---------------------------------------------------
  free energy    TOTEN  =       105.38258414 eV

  energy without entropy =      105.38258414  energy(sigma->0) =      105.38258414


--------------------------------------------------------------------------------------------------------




--------------------------------------- Iteration      1(   4)  ---------------------------------------


     EDDAV:  cpu time    1.1768: real time    1.1825
 BZINTS: Fermi energy: 11.768390;153.000000 electrons
         Band energy:-192.267675;  BLOECHL correction: -0.070787
       DOS:  cpu time    0.0075: real time    0.0076
    --------------------------------------------
      LOOP:  cpu time    1.1843: real time    1.1900

 eigenvalue-minimisations  :  3870
 total energy-change (2. order) :-0.2257329E+03  (-0.2157194E+03)
 number of electron     153.0000000 magnetization      13.0000000
 augmentation part      153.0000000 magnetization      13.0000000

 Free energy of the ion-electron system (eV)
  ---------------------------------------------------
  alpha Z        PSCENC =       662.52413014
  Ewald energy   TEWEN  =    -10729.34552588
  -Hartree energ DENC   =     -2585.09534520
  -exchange      EXHF   =         0.00000000
  -V(xc)+E(xc)   XCENC  =       546.31530369
  PAW double counting   =     10024.85533752   -10149.29831327
  entropy T*S    EENTRO =         0.00000000
  eigenvalues    EBANDS =      -192.26767493
  atomic energy  EATOM  =     12301.96174248
  Solvation  Ediel_sol  =         0.00000000
  ---------------------------------------------------
  free energy    TOTEN  =      -120.35034546 eV

  energy without entropy =     -120.35034546  energy(sigma->0) =     -120.35034546


--------------------------------------------------------------------------------------------------------




--------------------------------------- Iteration      1(   5)  ---------------------------------------


     EDDAV:  cpu time    1.3133: real time    1.3184
 BZINTS: Fermi energy: 11.219906;153.000000 electrons
         Band energy:-234.233550;  BLOECHL correction: -0.097375
       DOS:  cpu time    0.0071: real time    0.0071
    CHARGE:  cpu time    0.0626: real time    0.0628
    MIXING:  cpu time    0.0023: real time    0.0024
    --------------------------------------------
      LOOP:  cpu time    1.3852: real time    1.3907

 eigenvalue-minimisations  :  4396
 total energy-change (2. order) :-0.4196588E+02  (-0.3979964E+02)
 number of electron     153.0000103 magnetization      12.6540215
 augmentation part       21.2834584 magnetization       9.7037911

 Broyden mixing:
  rms(total) = 0.69231E+01    rms(broyden)= 0.69226E+01
  rms(prec ) = 0.72922E+01
  weight for this iteration     100.00

 Free energy of the ion-electron system (eV)
  ---------------------------------------------------
  alpha Z        PSCENC =       662.52413014
  Ewald energy   TEWEN  =    -10729.34552588
  -Hartree energ DENC   =     -2585.09534520
  -exchange      EXHF   =         0.00000000
  -V(xc)+E(xc)   XCENC  =       546.31530369
  PAW double counting   =     10024.85533752   -10149.29831327
  entropy T*S    EENTRO =         0.00000000
  eigenvalues    EBANDS =      -234.23355031
  atomic energy  EATOM  =     12301.96174248
  Solvation  Ediel_sol  =         0.00000000
  ---------------------------------------------------
  free energy    TOTEN  =      -162.31622084 eV

  energy without entropy =     -162.31622084  energy(sigma->0) =     -162.31622084


--------------------------------------------------------------------------------------------------------




--------------------------------------- Iteration      1(   6)  ---------------------------------------


    POTLOK:  cpu time    0.0449: real time    0.0457
    SETDIJ:  cpu time    0.0113: real time    0.0114
atom =   1  type =  1  l = 0
 
 onsite density matrix
 
spin component  1
 
  1.0564
 
spin component  2
 
  1.0572
 
 occupancies and eigenvectors
 
  o =  1.0564  v =  1.0000  0.0000      0.0000  0.0000
  o =  1.0572  v =  0.0000  1.0000      0.0000  0.0000
atom =   2  type =  1  l = 0
 
 onsite density matrix
 
spin component  1
 
  1.0564
 
spin component  2
 
  1.0572
 
 occupancies and eigenvectors
 
  o =  1.0564  v =  1.0000  0.0000      0.0000  0.0000
  o =  1.0572  v =  0.0000  1.0000      0.0000  0.0000
atom =   3  type =  1  l = 0
 
 onsite density matrix
 
spin component  1
 
  1.0576
 
spin component  2
 
  1.0581
 
 occupancies and eigenvectors
 
  o =  1.0576  v =  1.0000  0.0000      0.0000  0.0000
  o =  1.0581  v =  0.0000  1.0000      0.0000  0.0000
atom =   4  type =  1  l = 0
 
 onsite density matrix
 
spin component  1
 
  1.0576
 
spin component  2
 
  1.0581
 
 occupancies and eigenvectors
 
  o =  1.0576  v =  1.0000  0.0000      0.0000  0.0000
  o =  1.0581  v =  0.0000  1.0000      0.0000  0.0000
atom =   5  type =  2  l = 2
 
 onsite density matrix
 
spin component  1
 
  0.9779  0.0000 -0.0000  0.0000  0.0000
  0.0000  0.9647 -0.0000  0.0000 -0.0000
 -0.0000 -0.0000  0.3337  0.0000  0.0000
  0.0000  0.0000  0.0000  0.9647 -0.0000
  0.0000 -0.0000  0.0000 -0.0000  0.3847
 
spin component  2
 
  0.0120  0.0000  0.0000 -0.0000 -0.0000
  0.0000  0.0255  0.0000 -0.0000  0.0000
  0.0000  0.0000  0.4630  0.0000  0.0000
 -0.0000 -0.0000  0.0000  0.0255 -0.0000
 -0.0000  0.0000  0.0000 -0.0000  0.4261
 
 occupancies and eigenvectors
 
  o =  0.0120  v =  0.0000  0.0000  0.0000  0.0000  0.0000  1.0000  0.0000  0.0000  0.0000  0.0000      0.0000  0.0000  0.0000  0.0000  0.0000  0.0000  0.0000  0.0000  0.0000  0.0000
  o =  0.0255  v =  0.0000  0.0000  0.0000  0.0000  0.0000  0.0000  0.4454 -0.0000 -0.8953  0.0000      0.0000  0.0000  0.0000  0.0000  0.0000  0.0000  0.0000  0.0000  0.0000  0.0000
  o =  0.0255  v =  0.0000  0.0000  0.0000  0.0000  0.0000  0.0000  0.8953 -0.0000  0.4454 -0.0000      0.0000  0.0000  0.0000  0.0000  0.0000  0.0000  0.0000  0.0000  0.0000  0.0000
  o =  0.3337  v =  0.0000 -0.0000  1.0000 -0.0000  0.0000  0.0000  0.0000  0.0000  0.0000  0.0000      0.0000  0.0000  0.0000  0.0000  0.0000  0.0000  0.0000  0.0000  0.0000  0.0000
  o =  0.3847  v =  0.0000  0.0000 -0.0000  0.0000  1.0000  0.0000  0.0000  0.0000  0.0000  0.0000      0.0000  0.0000  0.0000  0.0000  0.0000  0.0000  0.0000  0.0000  0.0000  0.0000
  o =  0.4261  v =  0.0000  0.0000  0.0000  0.0000  0.0000  0.0000  0.0000 -0.0000 -0.0000  1.0000      0.0000  0.0000  0.0000  0.0000  0.0000  0.0000  0.0000  0.0000  0.0000  0.0000
  o =  0.4630  v =  0.0000  0.0000  0.0000  0.0000  0.0000  0.0000 -0.0000 -1.0000  0.0000 -0.0000      0.0000  0.0000  0.0000  0.0000  0.0000  0.0000  0.0000  0.0000  0.0000  0.0000
  o =  0.9647  v =  0.0000 -0.7765 -0.0000 -0.6301  0.0000  0.0000  0.0000  0.0000  0.0000  0.0000      0.0000  0.0000  0.0000  0.0000  0.0000  0.0000  0.0000  0.0000  0.0000  0.0000
  o =  0.9647  v =  0.0000  0.6301  0.0000 -0.7765  0.0000  0.0000  0.0000  0.0000  0.0000  0.0000      0.0000  0.0000  0.0000  0.0000  0.0000  0.0000  0.0000  0.0000  0.0000  0.0000
  o =  0.9779  v =  1.0000  0.0000  0.0000  0.0000  0.0000  0.0000  0.0000  0.0000  0.0000  0.0000      0.0000  0.0000  0.0000  0.0000  0.0000  0.0000  0.0000  0.0000  0.0000  0.0000
atom =   6  type =  3  l = 2
 
 onsite density matrix
 
spin component  1
 
  0.9948 -0.0000 -0.0000  0.0000 -0.0000
 -0.0000  0.9660 -0.0000  0.0000 -0.0000
 -0.0000 -0.0000  1.3251 -0.0000 -0.0000
  0.0000  0.0000 -0.0000  0.9660 -0.0000
 -0.0000 -0.0000 -0.0000 -0.0000  1.3372
 
spin component  2
 
  0.6475  0.0000  0.0000 -0.0000  0.0000
  0.0000  0.6939  0.0000 -0.0000  0.0000
  0.0000  0.0000  0.1826 -0.0000  0.0000
 -0.0000 -0.0000 -0.0000  0.6939  0.0000
  0.0000  0.0000  0.0000  0.0000  0.1826
 
 occupancies and eigenvectors
 
  o =  0.1826  v =  0.0000  0.0000  0.0000  0.0000  0.0000  0.0000  0.0000  1.0000 -0.0000 -0.0000      0.0000  0.0000  0.0000  0.0000  0.0000  0.0000  0.0000  0.0000  0.0000  0.0000
  o =  0.1826  v =  0.0000  0.0000  0.0000  0.0000  0.0000  0.0000  0.0000 -0.0000 -0.0000 -1.0000      0.0000  0.0000  0.0000  0.0000  0.0000  0.0000  0.0000  0.0000  0.0000  0.0000
  o =  0.6475  v =  0.0000  0.0000  0.0000  0.0000  0.0000  1.0000  0.0000  0.0000  0.0000  0.0000      0.0000  0.0000  0.0000  0.0000  0.0000  0.0000  0.0000  0.0000  0.0000  0.0000
  o =  0.6939  v =  0.0000  0.0000  0.0000  0.0000  0.0000  0.0000 -0.3358  0.0000  0.9419 -0.0000      0.0000  0.0000  0.0000  0.0000  0.0000  0.0000  0.0000  0.0000  0.0000  0.0000
  o =  0.6939  v =  0.0000  0.0000  0.0000  0.0000  0.0000  0.0000 -0.9419  0.0000 -0.3358  0.0000      0.0000  0.0000  0.0000  0.0000  0.0000  0.0000  0.0000  0.0000  0.0000  0.0000
  o =  0.9660  v =  0.0000 -0.4991 -0.0000 -0.8666  0.0000  0.0000  0.0000  0.0000  0.0000  0.0000      0.0000  0.0000  0.0000  0.0000  0.0000  0.0000  0.0000  0.0000  0.0000  0.0000
  o =  0.9660  v =  0.0000  0.8666 -0.0000 -0.4991 -0.0000  0.0000  0.0000  0.0000  0.0000  0.0000      0.0000  0.0000  0.0000  0.0000  0.0000  0.0000  0.0000  0.0000  0.0000  0.0000
  o =  0.9948  v =  1.0000  0.0000  0.0000  0.0000  0.0000  0.0000  0.0000  0.0000  0.0000  0.0000      0.0000  0.0000  0.0000  0.0000  0.0000  0.0000  0.0000  0.0000  0.0000  0.0000
  o =  1.3251  v =  0.0000  0.0000 -1.0000  0.0000 -0.0000  0.0000  0.0000  0.0000  0.0000  0.0000      0.0000  0.0000  0.0000  0.0000  0.0000  0.0000  0.0000  0.0000  0.0000  0.0000
  o =  1.3372  v =  0.0000 -0.0000  0.0000  0.0000 -1.0000  0.0000  0.0000  0.0000  0.0000  0.0000      0.0000  0.0000  0.0000  0.0000  0.0000  0.0000  0.0000  0.0000  0.0000  0.0000
atom =   7  type =  3  l = 2
 
 onsite density matrix
 
spin component  1
 
  0.9763 -0.0000  0.0000 -0.0000  0.0000
 -0.0000  1.0074  0.0000  0.0000  0.0000
  0.0000  0.0000  1.3332 -0.0000  0.0000
 -0.0000  0.0000 -0.0000  1.0074 -0.0000
  0.0000  0.0000  0.0000 -0.0000  1.3363
 
spin component  2
 
  0.6787  0.0000  0.0000  0.0000 -0.0000
  0.0000  0.6293 -0.0000  0.0000 -0.0000
  0.0000 -0.0000  0.1953  0.0000  0.0000
  0.0000  0.0000  0.0000  0.6293  0.0000
 -0.0000 -0.0000  0.0000  0.0000  0.1844
 
 occupancies and eigenvectors
 
  o =  0.1844  v =  0.0000  0.0000  0.0000  0.0000  0.0000  0.0000 -0.0000  0.0000  0.0000 -1.0000      0.0000  0.0000  0.0000  0.0000  0.0000  0.0000  0.0000  0.0000  0.0000  0.0000
  o =  0.1953  v =  0.0000  0.0000  0.0000  0.0000  0.0000  0.0000  0.0000 -1.0000  0.0000  0.0000      0.0000  0.0000  0.0000  0.0000  0.0000  0.0000  0.0000  0.0000  0.0000  0.0000
  o =  0.6293  v =  0.0000  0.0000  0.0000  0.0000  0.0000  0.0000  1.0000  0.0000  0.0000 -0.0000      0.0000  0.0000  0.0000  0.0000  0.0000  0.0000  0.0000  0.0000  0.0000  0.0000
  o =  0.6293  v =  0.0000  0.0000  0.0000  0.0000  0.0000  0.0000  0.0000  0.0000 -1.0000 -0.0000      0.0000  0.0000  0.0000  0.0000  0.0000  0.0000  0.0000  0.0000  0.0000  0.0000
  o =  0.6787  v =  0.0000  0.0000  0.0000  0.0000  0.0000  1.0000  0.0000  0.0000  0.0000  0.0000      0.0000  0.0000  0.0000  0.0000  0.0000  0.0000  0.0000  0.0000  0.0000  0.0000
  o =  0.9763  v =  1.0000  0.0000  0.0000  0.0000  0.0000  0.0000  0.0000  0.0000  0.0000  0.0000      0.0000  0.0000  0.0000  0.0000  0.0000  0.0000  0.0000  0.0000  0.0000  0.0000
  o =  1.0074  v =  0.0000  0.0000 -0.0000 -1.0000 -0.0000  0.0000  0.0000  0.0000  0.0000  0.0000      0.0000  0.0000  0.0000  0.0000  0.0000  0.0000  0.0000  0.0000  0.0000  0.0000
  o =  1.0074  v =  0.0000 -1.0000  0.0000 -0.0000 -0.0000  0.0000  0.0000  0.0000  0.0000  0.0000      0.0000  0.0000  0.0000  0.0000  0.0000  0.0000  0.0000  0.0000  0.0000  0.0000
  o =  1.3332  v =  0.0000 -0.0000  1.0000 -0.0000 -0.0000  0.0000  0.0000  0.0000  0.0000  0.0000      0.0000  0.0000  0.0000  0.0000  0.0000  0.0000  0.0000  0.0000  0.0000  0.0000
  o =  1.3363  v =  0.0000  0.0000  0.0000  0.0000 -1.0000  0.0000  0.0000  0.0000  0.0000  0.0000      0.0000  0.0000  0.0000  0.0000  0.0000  0.0000  0.0000  0.0000  0.0000  0.0000
atom =   8  type =  3  l = 2
 
 onsite density matrix
 
spin component  1
 
  0.9948  0.0000 -0.0000  0.0000 -0.0000
  0.0000  0.9660 -0.0000  0.0000 -0.0000
 -0.0000 -0.0000  1.3251 -0.0000  0.0000
  0.0000  0.0000 -0.0000  0.9660 -0.0000
 -0.0000 -0.0000  0.0000 -0.0000  1.3372
 
spin component  2
 
  0.6475 -0.0000  0.0000 -0.0000  0.0000
 -0.0000  0.6939  0.0000 -0.0000  0.0000
  0.0000  0.0000  0.1826  0.0000 -0.0000
 -0.0000 -0.0000  0.0000  0.6939  0.0000
  0.0000  0.0000 -0.0000  0.0000  0.1826
 
 occupancies and eigenvectors
 
  o =  0.1826  v =  0.0000  0.0000  0.0000  0.0000  0.0000  0.0000  0.0000 -1.0000  0.0000  0.0000      0.0000  0.0000  0.0000  0.0000  0.0000  0.0000  0.0000  0.0000  0.0000  0.0000
  o =  0.1826  v =  0.0000  0.0000  0.0000  0.0000  0.0000  0.0000  0.0000  0.0000  0.0000  1.0000      0.0000  0.0000  0.0000  0.0000  0.0000  0.0000  0.0000  0.0000  0.0000  0.0000
  o =  0.6475  v =  0.0000  0.0000  0.0000  0.0000  0.0000  1.0000  0.0000  0.0000  0.0000  0.0000      0.0000  0.0000  0.0000  0.0000  0.0000  0.0000  0.0000  0.0000  0.0000  0.0000
  o =  0.6939  v =  0.0000  0.0000  0.0000  0.0000  0.0000  0.0000  0.4821 -0.0000 -0.8761 -0.0000      0.0000  0.0000  0.0000  0.0000  0.0000  0.0000  0.0000  0.0000  0.0000  0.0000
  o =  0.6939  v =  0.0000  0.0000  0.0000  0.0000  0.0000  0.0000  0.8761  0.0000  0.4821 -0.0000      0.0000  0.0000  0.0000  0.0000  0.0000  0.0000  0.0000  0.0000  0.0000  0.0000
  o =  0.9660  v =  0.0000  0.9929  0.0000  0.1191 -0.0000  0.0000  0.0000  0.0000  0.0000  0.0000      0.0000  0.0000  0.0000  0.0000  0.0000  0.0000  0.0000  0.0000  0.0000  0.0000
  o =  0.9660  v =  0.0000  0.1191  0.0000 -0.9929  0.0000  0.0000  0.0000  0.0000  0.0000  0.0000      0.0000  0.0000  0.0000  0.0000  0.0000  0.0000  0.0000  0.0000  0.0000  0.0000
  o =  0.9948  v =  1.0000  0.0000  0.0000  0.0000  0.0000  0.0000  0.0000  0.0000  0.0000  0.0000      0.0000  0.0000  0.0000  0.0000  0.0000  0.0000  0.0000  0.0000  0.0000  0.0000
  o =  1.3251  v =  0.0000  0.0000 -1.0000 -0.0000  0.0000  0.0000  0.0000  0.0000  0.0000  0.0000      0.0000  0.0000  0.0000  0.0000  0.0000  0.0000  0.0000  0.0000  0.0000  0.0000
  o =  1.3372  v =  0.0000  0.0000  0.0000  0.0000  1.0000  0.0000  0.0000  0.0000  0.0000  0.0000      0.0000  0.0000  0.0000  0.0000  0.0000  0.0000  0.0000  0.0000  0.0000  0.0000
atom =   9  type =  4  l = 0
 
 onsite density matrix
 
spin component  1
 
  0.8162
 
spin component  2
 
  0.8144
 
 occupancies and eigenvectors
 
  o =  0.8144  v =  0.0000  1.0000      0.0000  0.0000
  o =  0.8162  v =  1.0000  0.0000      0.0000  0.0000
atom =  10  type =  4  l = 0
 
 onsite density matrix
 
spin component  1
 
  0.8193
 
spin component  2
 
  0.8107
 
 occupancies and eigenvectors
 
  o =  0.8107  v =  0.0000  1.0000      0.0000  0.0000
  o =  0.8193  v =  1.0000  0.0000      0.0000  0.0000
atom =  11  type =  4  l = 0
 
 onsite density matrix
 
spin component  1
 
  0.8193
 
spin component  2
 
  0.8107
 
 occupancies and eigenvectors
 
  o =  0.8107  v =  0.0000  1.0000      0.0000  0.0000
  o =  0.8193  v =  1.0000  0.0000      0.0000  0.0000
atom =  12  type =  4  l = 0
 
 onsite density matrix
 
spin component  1
 
  0.8162
 
spin component  2
 
  0.8144
 
 occupancies and eigenvectors
 
  o =  0.8144  v =  0.0000  1.0000      0.0000  0.0000
  o =  0.8162  v =  1.0000  0.0000      0.0000  0.0000
atom =  13  type =  4  l = 0
 
 onsite density matrix
 
spin component  1
 
  0.8114
 
spin component  2
 
  0.8189
 
 occupancies and eigenvectors
 
  o =  0.8114  v =  1.0000  0.0000      0.0000  0.0000
  o =  0.8189  v =  0.0000  1.0000      0.0000  0.0000
atom =  14  type =  4  l = 0
 
 onsite density matrix
 
spin component  1
 
  0.8194
 
spin component  2
 
  0.8105
 
 occupancies and eigenvectors
 
  o =  0.8105  v =  0.0000  1.0000      0.0000  0.0000
  o =  0.8194  v =  1.0000  0.0000      0.0000  0.0000
atom =  15  type =  4  l = 0
 
 onsite density matrix
 
spin component  1
 
  0.8198
 
spin component  2
 
  0.8106
 
 occupancies and eigenvectors
 
  o =  0.8106  v =  0.0000  1.0000      0.0000  0.0000
  o =  0.8198  v =  1.0000  0.0000      0.0000  0.0000
atom =  16  type =  4  l = 0
 
 onsite density matrix
 
spin component  1
 
  0.8194
 
spin component  2
 
  0.8105
 
 occupancies and eigenvectors
 
  o =  0.8105  v =  0.0000  1.0000      0.0000  0.0000
  o =  0.8194  v =  1.0000  0.0000      0.0000  0.0000
atom =  17  type =  4  l = 0
 
 onsite density matrix
 
spin component  1
 
  0.8114
 
spin component  2
 
  0.8189
 
 occupancies and eigenvectors
 
  o =  0.8114  v =  1.0000  0.0000      0.0000  0.0000
  o =  0.8189  v =  0.0000  1.0000      0.0000  0.0000
atom =  18  type =  4  l = 0
 
 onsite density matrix
 
spin component  1
 
  0.8194
 
spin component  2
 
  0.8105
 
 occupancies and eigenvectors
 
  o =  0.8105  v =  0.0000  1.0000      0.0000  0.0000
  o =  0.8194  v =  1.0000  0.0000      0.0000  0.0000
atom =  19  type =  4  l = 0
 
 onsite density matrix
 
spin component  1
 
  0.8198
 
spin component  2
 
  0.8106
 
 occupancies and eigenvectors
 
  o =  0.8106  v =  0.0000  1.0000      0.0000  0.0000
  o =  0.8198  v =  1.0000  0.0000      0.0000  0.0000
atom =  20  type =  4  l = 0
 
 onsite density matrix
 
spin component  1
 
  0.8194
 
spin component  2
 
  0.8105
 
 occupancies and eigenvectors
 
  o =  0.8105  v =  0.0000  1.0000      0.0000  0.0000
  o =  0.8194  v =  1.0000  0.0000      0.0000  0.0000
    EDDIAG:  cpu time    0.1081: real time    0.1099
  RMM-DIIS:  cpu time    0.9187: real time    0.9218
    ORTHCH:  cpu time    0.0127: real time    0.0128
[...]
 -0.001   0.010   0.000  -0.032   0.000   0.000   0.009   0.000   0.000   0.000   0.001   0.000   0.000   0.000   0.000  -0.000
 -0.000   0.000  -0.000   0.000   0.014   0.000   0.000  -0.006   0.000   0.000  -0.000  -0.026  -0.000  -0.000   0.000   0.000
  0.000   0.000   0.000   0.000  -0.000   0.000   0.000   0.000   0.000   0.000   0.000   0.000  -0.047   0.000   0.000   0.000
 -0.000  -0.000   0.000   0.000  -0.023   0.000   0.000   0.008   0.000   0.000   0.000  -0.016   0.000   0.000   0.000   0.000
  0.000  -0.000  -0.032   0.000   0.000   0.011   0.000   0.000   0.000  -0.023   0.000  -0.000   0.000   0.000   0.010  -0.000
  0.000   0.000   0.000   0.000   0.000  -0.000   0.000   0.000   0.006  -0.000   0.000   0.000   0.000  -0.004   0.000   0.000
  0.000   0.000  -0.019   0.000   0.000   0.007  -0.000   0.000  -0.000   0.036   0.000   0.000   0.000   0.000  -0.016   0.000
  0.001  -0.013  -0.000   0.043   0.000  -0.000  -0.012   0.000   0.000   0.000  -0.003   0.000   0.000   0.000   0.000   0.001
 -0.000  -0.000   0.000  -0.000  -0.019   0.000   0.000   0.007   0.000   0.000   0.000   0.036  -0.000  -0.000   0.000   0.000
  0.000   0.000   0.000   0.000   0.000   0.000   0.000   0.000  -0.000   0.000   0.000   0.000   0.064   0.000   0.000   0.000
  0.000   0.000   0.000   0.000   0.032   0.000   0.000  -0.011   0.000  -0.000   0.000   0.023  -0.000   0.000   0.000   0.000
 total augmentation occupancy for first ion, spin component:           2
  0.000   0.003   0.000   0.000   0.000   0.000   0.000   0.000   0.000   0.000  -0.000  -0.000   0.000   0.000  -0.000   0.000
  0.003   0.004   0.000   0.000   0.000   0.000   0.000   0.000   0.000   0.000  -0.001   0.000   0.000   0.000   0.000   0.000
  0.000   0.000  -0.000   0.000   0.000   0.000   0.000   0.000   0.000   0.000   0.000   0.000   0.000   0.000  -0.000   0.000
  0.000   0.000   0.000  -0.001  -0.000  -0.000   0.000   0.000   0.000   0.000   0.000   0.000   0.000   0.000  -0.000  -0.000
  0.000   0.000   0.000  -0.000  -0.000   0.000  -0.000   0.000  -0.000  -0.000   0.000   0.000   0.000   0.000  -0.000   0.000
  0.000   0.000   0.000   0.000   0.000   0.000  -0.000   0.000   0.000  -0.000  -0.000  -0.000   0.000   0.000   0.000   0.000
  0.000   0.000  -0.000   0.000   0.000  -0.000   0.000  -0.000   0.000   0.000   0.000   0.000   0.000   0.000   0.000  -0.000
 -0.000  -0.000   0.000   0.000   0.000   0.000   0.000   0.000  -0.000  -0.000   0.000  -0.000   0.000  -0.000   0.000   0.000
  0.000   0.000   0.000   0.000   0.000   0.000   0.000   0.000   0.008   0.000   0.000  -0.000   0.000  -0.002  -0.000   0.000
  0.000   0.000   0.000   0.000  -0.000  -0.000   0.000  -0.000   0.000   0.007   0.000   0.000   0.000  -0.000  -0.002   0.000
 -0.000  -0.001   0.000   0.000   0.000   0.000   0.000   0.000   0.000   0.000   0.009  -0.000   0.000   0.000   0.000  -0.003
 -0.000  -0.000   0.000   0.000   0.000  -0.000   0.000  -0.000   0.000   0.000   0.000   0.007  -0.000   0.000   0.000  -0.000
  0.000   0.000   0.000   0.000  -0.000   0.000   0.000   0.000   0.000   0.000   0.000   0.000   0.009   0.000   0.000   0.000
  0.000   0.000   0.000   0.000   0.000   0.000   0.000  -0.000  -0.002   0.000   0.000   0.000   0.000   0.000   0.000   0.000
 -0.000   0.000  -0.000  -0.000  -0.000   0.000   0.000   0.000  -0.000  -0.002   0.000   0.000  -0.000  -0.000   0.000  -0.000
  0.000   0.000  -0.000  -0.000   0.000   0.000  -0.000   0.000   0.000   0.000  -0.003  -0.000   0.000   0.000   0.000   0.001
 -0.000   0.000  -0.000   0.000  -0.000  -0.000   0.000   0.000   0.000   0.000  -0.000  -0.002   0.000   0.000   0.000   0.000
  0.000   0.000   0.000   0.000   0.000   0.000   0.000   0.000   0.000   0.000   0.000   0.000  -0.003  -0.000   0.000   0.000
  0.000   0.000  -0.000   0.000   0.000  -0.000   0.000   0.000  -0.000  -0.000   0.000   0.000   0.000   0.000   0.000   0.000
  0.000   0.000  -0.000   0.000   0.000  -0.000   0.000   0.000  -0.001   0.000   0.000  -0.000  -0.000   0.000   0.000   0.000
  0.000   0.000  -0.000   0.000   0.000  -0.000   0.000   0.000  -0.000  -0.000   0.000   0.000   0.000   0.000   0.000   0.000
  0.000   0.000   0.000  -0.000   0.000   0.000   0.000   0.000   0.000   0.000  -0.000   0.000   0.000   0.000  -0.000   0.000
 -0.000   0.000   0.000   0.000  -0.000  -0.000   0.000  -0.000  -0.000   0.000  -0.000  -0.000   0.000   0.000   0.000   0.000
  0.000   0.000   0.000   0.000   0.000   0.000   0.000   0.000   0.000   0.000   0.000   0.000  -0.000  -0.000   0.000   0.000
  0.000   0.000  -0.000   0.000   0.000   0.000   0.000   0.000   0.000   0.000   0.000   0.000   0.000   0.000   0.000   0.000
  0.000   0.000  -0.000   0.000   0.000   0.000   0.000   0.000  -0.000   0.000   0.000   0.000   0.000   0.000  -0.000   0.000
  0.000   0.000   0.000   0.000   0.000   0.000   0.000   0.000   0.001   0.000   0.000  -0.000   0.000  -0.001   0.000   0.000
  0.000   0.000  -0.000   0.000   0.000   0.000   0.000   0.000   0.000   0.001  -0.000   0.000   0.000   0.000  -0.000   0.000
 -0.000  -0.001   0.000   0.000  -0.000   0.000  -0.000   0.000   0.000   0.000   0.000   0.000   0.000   0.000   0.000  -0.000
  0.000   0.000   0.000   0.000  -0.000   0.000   0.000   0.000  -0.000   0.000   0.000   0.001   0.000   0.000   0.000  -0.000
  0.000   0.000  -0.000   0.000   0.000   0.000   0.000   0.000   0.000   0.000   0.000   0.000   0.000  -0.000   0.000   0.000
  0.000   0.000  -0.000   0.000   0.000   0.000   0.000  -0.000  -0.000   0.000   0.000  -0.000   0.000  -0.000  -0.000   0.000


------------------------ aborting loop because EDIFF is reached ----------------------------------------


 


 total charge     
 
# of ion       s       p       d       f       tot
--------------------------------------------------
    1        2.000   5.700   0.493   0.191   8.384
    2        2.000   5.700   0.493   0.191   8.384
    3        2.002   5.701   0.509   0.197   8.409
    4        2.002   5.701   0.509   0.197   8.409
    5        0.343   0.534   4.872   0.000   5.749
    6        0.420   0.627   8.321   0.000   9.368
    7        0.439   0.670   8.318   0.000   9.427
    8        0.420   0.627   8.321   0.000   9.368
    9        1.562   3.460   0.000   0.000   5.022
   10        1.563   3.432   0.000   0.000   4.994
   11        1.563   3.432   0.000   0.000   4.994
   12        1.562   3.459   0.000   0.000   5.022
   13        1.558   3.525   0.000   0.000   5.084
   14        1.557   3.516   0.000   0.000   5.073
   15        1.560   3.507   0.000   0.000   5.067
   16        1.557   3.516   0.000   0.000   5.073
   17        1.572   3.389   0.000   0.000   4.960
   18        1.564   3.376   0.000   0.000   4.941
   19        1.567   3.361   0.000   0.000   4.927
   20        1.564   3.376   0.000   0.000   4.940
--------------------------------------------------
tot         28.378  66.608  31.835   0.776 127.596

 


 magnetization (x)
 
# of ion       s       p       d       f       tot
--------------------------------------------------
    1        0.001  -0.001   0.007   0.003   0.009
    2        0.000  -0.001   0.007   0.003   0.009
    3        0.000   0.000   0.009   0.004   0.014
    4        0.000   0.000   0.009   0.004   0.014
    5        0.023   0.020   3.410   0.000   3.453
    6        0.016   0.008   1.463   0.000   1.487
    7        0.020   0.013   1.285   0.000   1.318
    8        0.016   0.008   1.463   0.000   1.487
    9        0.005  -0.031   0.000   0.000  -0.026
   10        0.005  -0.106   0.000   0.000  -0.100
   11        0.005  -0.106   0.000   0.000  -0.100
   12        0.005  -0.031   0.000   0.000  -0.026
   13        0.008  -0.076   0.000   0.000  -0.068
   14        0.010  -0.044   0.000   0.000  -0.034
   15        0.011  -0.066   0.000   0.000  -0.054
   16        0.010  -0.044   0.000   0.000  -0.034
   17       -0.001  -0.038   0.000   0.000  -0.039
   18        0.001  -0.095   0.000   0.000  -0.093
   19        0.001  -0.119   0.000   0.000  -0.118
   20        0.001  -0.095   0.000   0.000  -0.093
--------------------------------------------------
tot          0.139  -0.802   7.651   0.013   7.003

 
    CHARGE:  cpu time    0.0598: real time    0.0599
    FORLOC:  cpu time    0.0059: real time    0.0059
    FORNL :  cpu time    0.2806: real time    0.2815
    STRESS:  cpu time    0.8527: real time    0.8555
    FORCOR:  cpu time    0.0512: real time    0.0514
    FORHAR:  cpu time    0.0104: real time    0.0105
    MIXING:  cpu time    0.0034: real time    0.0035
    OFIELD:  cpu time    0.0001: real time    0.0002

  FORCE on cell =-STRESS in cart. coord.  units (eV):
  Direction    XX          YY          ZZ          XY          YZ          ZX
  --------------------------------------------------------------------------------------
  Alpha Z   662.52413   662.52413   662.52413
  Ewald   -3507.32541 -3507.32541 -3714.72488     0.00000    -0.00000    -0.00000
  Hartree   933.49185   933.49185   736.10241    -0.00000    -0.00000    -0.00000
  E(xc)    -718.24549  -718.24549  -718.34377     0.00000     0.00000    -0.00000
  Local    -709.87145  -709.87145  -303.24150    -0.00000     0.00000     0.00000
  n-local   295.07889   287.14361   291.14082    -2.10350     0.00019    -0.00140
  augment   471.16345   471.16345   470.46673     0.00000    -0.00000     0.00000
  Kinetic  2540.41535  2615.14613  2576.68254    -5.60990    -0.00084     0.00063
  Fock        0.00000     0.00000     0.00000     0.00000     0.00000     0.00000
  -------------------------------------------------------------------------------------
  Total       0.62907     0.62907     0.60648     0.00000     0.00000     0.00000
  in kB       4.38483     4.38483     4.22734     0.00000     0.00000     0.00000
  external pressure =        4.33 kB  Pullay stress =        0.00 kB


 VOLUME and BASIS-vectors are now :
 -----------------------------------------------------------------------------
  energy-cutoff  :      520.00
  volume of cell :      229.86
      direct lattice vectors                 reciprocal lattice vectors
     3.857859474  0.000000000  0.000000000     0.259211101  0.000000000  0.000000000
     0.000000000  3.857859474  0.000000000     0.000000000  0.259211101  0.000000000
     0.000000000  0.000000000 15.444228097     0.000000000  0.000000000  0.064749108

  length of vectors
     3.857859474  3.857859474 15.444228097     0.259211101  0.259211101  0.064749108


 FORCES acting on ions
    electron-ion (+dipol)            ewald-force                    non-local-force                 convergence-correction
 -----------------------------------------------------------------------------------------------
   -.334E-14 -.142E-13 0.760E+02   -.247E-14 -.875E-14 -.756E+02   0.000E+00 0.271E-19 -.334E+00   0.112E-15 0.827E-15 -.355E-01
   0.742E-15 -.131E-13 -.760E+02   0.193E-13 -.749E-14 0.756E+02   0.000E+00 -.271E-19 0.334E+00   0.114E-13 0.908E-14 0.355E-01
   -.523E-14 0.234E-13 -.199E+03   -.268E-13 0.175E-14 0.197E+03   0.271E-19 -.610E-19 0.116E+01   0.648E-14 -.437E-14 0.870E-03
   -.139E-14 -.275E-13 0.199E+03   0.132E-13 0.244E-14 -.197E+03   -.271E-19 0.542E-19 -.116E+01   0.416E-14 -.419E-14 -.870E-03
   0.401E-13 0.686E-12 -.150E-11   0.309E-13 0.634E-14 0.171E-12   0.000E+00 0.424E-21 0.847E-21   0.145E-13 0.248E-13 0.336E-13
   0.252E-12 0.119E-11 0.104E+03   -.275E-14 -.126E-13 -.103E+03   -.424E-21 0.847E-21 -.615E+00   0.622E-13 0.496E-14 -.167E-01
   0.279E-12 -.105E-13 0.224E-11   -.299E-13 -.125E-14 -.142E-12   0.000E+00 0.000E+00 0.000E+00   0.529E-13 0.154E-14 -.203E-12
   0.257E-12 0.192E-11 -.104E+03   -.214E-13 0.183E-14 0.103E+03   0.000E+00 -.318E-21 0.615E+00   0.481E-13 0.103E-13 0.167E-01
   0.114E-12 0.140E-11 -.116E+03   0.219E-13 0.466E-14 0.112E+03   0.000E+00 -.678E-20 0.464E+01   0.352E-14 0.338E-15 -.209E-01
   0.113E-12 0.117E-11 -.519E+02   0.589E-14 0.352E-14 0.537E+02   0.000E+00 0.000E+00 -.188E+01   0.125E-13 -.225E-13 0.194E-01
   0.124E-12 0.166E-11 0.519E+02   0.289E-15 0.523E-14 -.537E+02   0.000E+00 0.000E+00 0.188E+01   0.260E-13 -.105E-13 -.194E-01
   0.114E-12 0.120E-11 0.116E+03   0.197E-13 -.899E-14 -.112E+03   0.000E+00 0.678E-20 -.464E+01   0.206E-13 -.726E-14 0.209E-01
   0.110E-12 0.139E-13 -.284E-11   -.868E-14 0.480E-15 0.185E-12   0.000E+00 0.000E+00 0.542E-19   0.263E-13 -.484E-14 0.669E-13
   0.108E-12 0.129E-12 -.596E+02   -.477E-14 0.101E-13 0.588E+02   0.678E-20 0.847E-21 0.874E+00   0.235E-13 0.342E-13 0.133E-02
   0.112E-12 0.183E-13 0.217E-11   -.206E-13 0.830E-14 -.853E-13   -.339E-20 0.169E-20 0.136E-19   0.269E-13 0.384E-13 -.149E-12
   0.115E-12 -.129E-12 0.596E+02   -.207E-13 0.127E-13 -.588E+02   -.678E-20 0.000E+00 -.874E+00   0.333E-13 0.313E-13 -.133E-02
   -.309E-14 0.233E-12 0.637E-12   -.514E-13 -.507E-14 0.185E-12   0.169E-20 0.000E+00 0.542E-19   0.165E-13 -.839E-14 0.731E-13
   -.696E-14 -.261E-12 -.596E+02   0.109E-13 -.562E-14 0.588E+02   0.000E+00 -.339E-20 0.874E+00   0.920E-14 -.155E-13 0.133E-02
   -.271E-14 0.131E-12 0.628E-13   0.406E-14 0.105E-13 -.142E-12   0.339E-20 0.000E+00 -.271E-19   0.241E-14 -.159E-13 -.120E-12
   -.304E-14 0.169E-12 0.596E+02   0.224E-13 -.873E-14 -.588E+02   -.339E-20 0.678E-20 -.874E+00   0.251E-15 -.126E-13 -.133E-02
 -----------------------------------------------------------------------------------------------
   0.171E-11 0.948E-11 0.579E-11   -.408E-13 0.946E-14 0.355E-12   -.212E-20 0.106E-21 0.000E+00   0.401E-12 0.497E-13 -.268E-14
 
 
 POSITION                                       TOTAL-FORCE (eV/Angst)
 -----------------------------------------------------------------------------------
      0.00000      0.00000      3.88716        -0.000000      0.000000      0.041522
      0.00000      0.00000      7.69601        -0.000000      0.000000     -0.041522
      0.00000      0.00000     11.47241        -0.000000      0.000000     -0.146606
      0.00000      0.00000      0.11076         0.000000      0.000000      0.146606
      1.92893      1.92893     13.51370        -0.000000      0.000000     -0.000000
      1.92893      1.92893      1.94285        -0.000000      0.000000      0.025604
      1.92893      1.92893      5.79159        -0.000000      0.000000     -0.000000
      1.92893      1.92893      9.64032        -0.000000      0.000000     -0.025604
      1.92893      1.92893     11.61898        -0.000000     -0.000000     -0.044833
      1.92893      1.92893      7.69182        -0.000000      0.000000     -0.063302
      1.92893      1.92893      3.89135        -0.000000     -0.000000      0.063302
      1.92893      1.92893     15.40842        -0.000000      0.000000      0.044833
      1.92893      0.00000     13.51370        -0.000000     -0.000000     -0.000000
      1.92893      0.00000      9.67203        -0.000000     -0.000000     -0.015051
      1.92893      0.00000      5.79159        -0.000000      0.000000     -0.000000
      1.92893      0.00000      1.91114        -0.000000      0.000000      0.015051
      0.00000      1.92893     13.51370         0.000000     -0.000000     -0.000000
      0.00000      1.92893      9.67203        -0.000000      0.000000     -0.015051
      0.00000      1.92893      5.79159        -0.000000     -0.000000     -0.000000
      0.00000      1.92893      1.91114         0.000000      0.000000      0.015051
 -----------------------------------------------------------------------------------
    total drift:                                0.000000      0.000000      0.000000


--------------------------------------------------------------------------------------------------------



  FREE ENERGIE OF THE ION-ELECTRON SYSTEM (eV)
  ---------------------------------------------------
  free  energy   TOTEN  =      -140.07350054 eV

  energy  without entropy=     -140.07350054  energy(sigma->0) =     -140.07350054
 


--------------------------------------------------------------------------------------------------------


    POTLOK:  cpu time    0.0553: real time    0.0554


--------------------------------------------------------------------------------------------------------


     LOOP+:  cpu time   23.0126: real time   23.1190
    4ORBIT:  cpu time    0.0000: real time    0.0000
 


 total charge     
 
# of ion       s       p       d       f       tot
--------------------------------------------------
    1        2.000   5.700   0.493   0.191   8.384
    2        2.000   5.700   0.493   0.191   8.384
    3        2.002   5.701   0.509   0.197   8.409
    4        2.002   5.701   0.509   0.197   8.409
    5        0.343   0.534   4.872   0.000   5.749
    6        0.420   0.627   8.321   0.000   9.368
    7        0.439   0.670   8.318   0.000   9.427
    8        0.420   0.627   8.321   0.000   9.368
    9        1.562   3.460   0.000   0.000   5.022
   10        1.563   3.432   0.000   0.000   4.994
   11        1.563   3.432   0.000   0.000   4.994
   12        1.562   3.459   0.000   0.000   5.022
   13        1.558   3.525   0.000   0.000   5.084
   14        1.557   3.516   0.000   0.000   5.073
   15        1.560   3.507   0.000   0.000   5.067
   16        1.557   3.516   0.000   0.000   5.073
   17        1.572   3.389   0.000   0.000   4.960
   18        1.564   3.376   0.000   0.000   4.941
   19        1.567   3.361   0.000   0.000   4.927
   20        1.564   3.376   0.000   0.000   4.940
--------------------------------------------------
tot         28.378  66.608  31.835   0.776 127.596

 


 magnetization (x)
 
# of ion       s       p       d       f       tot
--------------------------------------------------
    1        0.001  -0.001   0.007   0.003   0.009
    2        0.000  -0.001   0.007   0.003   0.009
    3        0.000   0.000   0.009   0.004   0.014
    4        0.000   0.000   0.009   0.004   0.014
    5        0.023   0.020   3.410   0.000   3.453
    6        0.016   0.008   1.463   0.000   1.487
    7        0.020   0.013   1.285   0.000   1.318
    8        0.016   0.008   1.463   0.000   1.487
    9        0.005  -0.031   0.000   0.000  -0.026
   10        0.005  -0.106   0.000   0.000  -0.100
   11        0.005  -0.106   0.000   0.000  -0.100
   12        0.005  -0.031   0.000   0.000  -0.026
   13        0.008  -0.076   0.000   0.000  -0.068
   14        0.010  -0.044   0.000   0.000  -0.034
   15        0.011  -0.066   0.000   0.000  -0.054
   16        0.010  -0.044   0.000   0.000  -0.034
   17       -0.001  -0.038   0.000   0.000  -0.039
   18        0.001  -0.095   0.000   0.000  -0.093
   19        0.001  -0.119   0.000   0.000  -0.118
   20        0.001  -0.095   0.000   0.000  -0.093
--------------------------------------------------
tot          0.139  -0.802   7.651   0.013   7.003

 
 BZINTS: Fermi energy:  7.592318;153.000000 electrons
         Band energy:-178.001792;  BLOECHL correction: -0.124712

 total amount of memory used by VASP MPI-rank0    47901. kBytes
=======================================================================

   base      :      30000. kBytes
   nonlr-proj:       4671. kBytes
   fftplans  :       1783. kBytes
   grid      :       5042. kBytes
   one-center:        196. kBytes
   wavefun   :       6209. kBytes
 
  
  
 General timing and accounting informations for this job:
 ========================================================
  
                  Total CPU time used (sec):       27.404
                            User time (sec):       25.821
                          System time (sec):        1.583
                         Elapsed time (sec):       27.707
  
                   Maximum memory used (kb):       84984.
                   Average memory used (kb):           0.
  
                          Minor page faults:        28734
                          Major page faults:            0
                 Voluntary context switches:         1100
