 vasp.5.4.4.18Apr17-6-g9f103f2a35 (build Oct 03 2018 13:58:34) complex          
  
 executed on             LinuxIFC date 2019.06.04  01:16:19
 running on   40 total cores
 distrk:  each k-point on   20 cores,    2 groups
 distr:  one band on NCORES_PER_BAND=  10 cores,    2 groups


--------------------------------------------------------------------------------------------------------


 INCAR:
 POTCAR:    PAW_PBE La 06Sep2000                  
 POTCAR:    PAW_PBE Mn 06Sep2000                  
 POTCAR:    PAW_PBE Ni 02Aug2007                  
 POTCAR:    PAW_PBE O 08Apr2002                   

 ----------------------------------------------------------------------------- 
|                                                                             |
|           W    W    AA    RRRRR   N    N  II  N    N   GGGG   !!!           |
|           W    W   A  A   R    R  NN   N  II  NN   N  G    G  !!!           |
|           W    W  A    A  R    R  N N  N  II  N N  N  G       !!!           |
|           W WW W  AAAAAA  RRRRR   N  N N  II  N  N N  G  GGG   !            |
|           WW  WW  A    A  R   R   N   NN  II  N   NN  G    G                |
|           W    W  A    A  R    R  N    N  II  N    N   GGGG   !!!           |
|                                                                             |
|      You have enabled k-point parallelism (KPAR>1).                         |
|      This developmental code was originally  written by Paul Kent at ORNL,  |
|      and carefully double checked in Vienna.                                |
|      GW as well as linear response parallelism added by Martijn Marsman     |
|      and Georg Kresse.                                                      |
|      Carefully verify results versus KPAR=1.                                |
|      Report problems to Paul Kent and Vienna.                               |
|                                                                             |
 ----------------------------------------------------------------------------- 

 POTCAR:    PAW_PBE La 06Sep2000                  
   VRHFIN =La : [core=Kr4d]                                                     
   LEXCH  = PE                                                                  
   EATOM  =   865.9763 eV,   63.6475 Ry                                         
                                                                                
   TITEL  = PAW_PBE La 06Sep2000                                                
   LULTRA =        F    use ultrasoft PP ?                                      
   IUNSCR =        1    unscreen: 0-lin 1-nonlin 2-no                           
   RPACOR =    2.300    partial core radius                                     
   POMASS =  138.900; ZVAL   =   11.000    mass and valenz                      
   RCORE  =    2.800    outmost cutoff radius                                   
   RWIGS  =    2.900; RWIGS  =    1.535    wigner-seitz radius (au A)           
   ENMAX  =  219.292; ENMIN  =  164.469 eV                                      
   RCLOC  =    1.601    cutoff for local pot                                    
   LCOR   =        T    correct aug charges                                     
   LPAW   =        T    paw PP                                                  
   EAUG   =  583.575                                                            
   DEXC   =    0.000                                                            
   RMAX   =    2.853    core radius for proj-oper                               
   RAUG   =    1.300    factor for augmentation sphere                          
   RDEP   =    2.802    radius for radial grids                                 
   RDEPT  =    2.156    core radius for aug-charge                              
                                                                                
   Atomic configuration                                                         
   14 entries                                                                   
     n  l   j            E        occ.                                          
     1  0  0.50    -38741.0879   2.0000                                         
     2  0  0.50     -6166.6801   2.0000                                         
     2  1  1.50     -5526.1593   6.0000                                         
     3  0  0.50     -1319.0200   2.0000                                         
     3  1  1.50     -1114.5963   6.0000                                         
     3  2  2.50      -821.1793  10.0000                                         
     4  0  0.50      -266.3851   2.0000                                         
     4  1  1.50      -199.9276   6.0000                                         
     4  2  2.50      -103.8239  10.0000                                         
     5  0  0.50       -38.9172   2.0000                                         
     6  0  0.50        -3.6792   2.0000                                         
     5  1  1.50       -22.3948   6.0000                                         
     5  2  2.50        -3.0911   0.9999                                         
     4  3  2.50        -4.3603   0.0001                                         
   Description                                                                  
     l       E           TYP  RCUT    TYP  RCUT                                 
     0    -38.9171645     23  2.800                                             
     0     -3.6792381     23  2.800                                             
     1    -22.3948300     23  2.500                                             
     1     27.2116520     23  2.500                                             
     2     -3.0910934     23  2.500                                             
     2      1.0119135     23  2.500                                             
     3     -4.3602911     23  2.800                                             
     3     -5.7208737     23  2.800                                             
  local pseudopotential read in
  partial core-charges read in
  partial kinetic energy density read in
  atomic valenz-charges read in
  non local Contribution for L=           0  read in
    real space projection operators read in
  non local Contribution for L=           0  read in
    real space projection operators read in
  non local Contribution for L=           1  read in
    real space projection operators read in
  non local Contribution for L=           1  read in
    real space projection operators read in
  non local Contribution for L=           2  read in
    real space projection operators read in
  non local Contribution for L=           2  read in
    real space projection operators read in
  non local Contribution for L=           3  read in
    real space projection operators read in
  non local Contribution for L=           3  read in
    real space projection operators read in
    PAW grid and wavefunctions read in
 
   number of l-projection  operators is LMAX  =           8
   number of lm-projection operators is LMMAX =          32
 
 POTCAR:    PAW_PBE Mn 06Sep2000                  
   VRHFIN =Mn: d6 s1                                                            
   LEXCH  = PE                                                                  
   EATOM  =   416.7541 eV,   30.6306 Ry                                         
                                                                                
   TITEL  = PAW_PBE Mn 06Sep2000                                                
   LULTRA =        F    use ultrasoft PP ?                                      
   IUNSCR =        1    unscreen: 0-lin 1-nonlin 2-no                           
   RPACOR =    2.000    partial core radius                                     
   POMASS =   54.938; ZVAL   =    7.000    mass and valenz                      
   RCORE  =    2.300    outmost cutoff radius                                   
   RWIGS  =    2.500; RWIGS  =    1.323    wigner-seitz radius (au A)           
   ENMAX  =  269.864; ENMIN  =  202.398 eV                                      
   RCLOC  =    1.725    cutoff for local pot                                    
   LCOR   =        T    correct aug charges                                     
   LPAW   =        T    paw PP                                                  
   EAUG   =  500.711                                                            
   DEXC   =    0.000                                                            
   RMAX   =    2.343    core radius for proj-oper                               
   RAUG   =    1.300    factor for augmentation sphere                          
   RDEP   =    2.338    radius for radial grids                                 
   RDEPT  =    1.911    core radius for aug-charge                              
                                                                                
   Atomic configuration                                                         
    9 entries                                                                   
     n  l   j            E        occ.                                          
     1  0  0.50     -6424.8288   2.0000                                         
     2  0  0.50      -739.1154   2.0000                                         
     2  1  1.50      -625.3949   6.0000                                         
     3  0  0.50       -81.6100   2.0000                                         
     3  1  1.50       -50.4667   6.0000                                         
     3  2  2.50        -3.3745   6.0000                                         
     4  0  0.50        -4.1331   1.0000                                         
     4  1  0.50        -4.0817   0.0000                                         
     4  3  2.50        -1.3606   0.0000                                         
   Description                                                                  
     l       E           TYP  RCUT    TYP  RCUT                                 
     2     -3.3744664     23  2.300                                             
     2     -4.7350490     23  2.300                                             
     0     -4.1331408     23  2.300                                             
     0      7.6656614     23  2.300                                             
     1     -2.7211652     23  2.300                                             
     1     20.4087390     23  2.300                                             
  local pseudopotential read in
  partial core-charges read in
  partial kinetic energy density read in
  atomic valenz-charges read in
  non local Contribution for L=           2  read in
    real space projection operators read in
  non local Contribution for L=           2  read in
    real space projection operators read in
  non local Contribution for L=           0  read in
    real space projection operators read in
  non local Contribution for L=           0  read in
    real space projection operators read in
  non local Contribution for L=           1  read in
    real space projection operators read in
  non local Contribution for L=           1  read in
    real space projection operators read in
    PAW grid and wavefunctions read in
 
   number of l-projection  operators is LMAX  =           6
   number of lm-projection operators is LMMAX =          18
 
 POTCAR:    PAW_PBE Ni 02Aug2007                  
   VRHFIN =Ni:                                                                  
   LEXCH  = PE                                                                  
   EATOM  =  1077.6739 eV,   79.2068 Ry                                         
                                                                                
   TITEL  = PAW_PBE Ni 02Aug2007                                                
   LULTRA =        F    use ultrasoft PP ?                                      
   IUNSCR =        1    unscreen: 0-lin 1-nonlin 2-no                           
   RPACOR =    2.000    partial core radius                                     
   POMASS =   58.690; ZVAL   =   10.000    mass and valenz                      
   RCORE  =    2.300    outmost cutoff radius                                   
   RWIGS  =    2.430; RWIGS  =    1.286    wigner-seitz radius (au A)           
   ENMAX  =  269.532; ENMIN  =  202.149 eV                                      
   RCLOC  =    1.201    cutoff for local pot                                    
   LCOR   =        T    correct aug charges                                     
   LPAW   =        T    paw PP                                                  
   EAUG   =  544.565                                                            
   DEXC   =    0.000                                                            
   RMAX   =    2.357    core radius for proj-oper                               
   RAUG   =    1.300    factor for augmentation sphere                          
   RDEP   =    2.390    radius for radial grids                                 
   RDEPT  =    1.838    core radius for aug-charge                              
                                                                                
   Atomic configuration                                                         
    9 entries                                                                   
     n  l   j            E        occ.                                          
     1  0  0.50     -8206.4253   2.0000                                         
     2  0  0.50      -976.1748   2.0000                                         
     2  1  1.50      -839.0571   6.0000                                         
     3  0  0.50      -105.9991   2.0000                                         
     3  1  1.50       -66.4603   6.0000                                         
     3  2  2.50        -4.6458   9.0000                                         
     4  0  0.50        -4.4926   1.0000                                         
     4  1  1.50        -4.0817   0.0000                                         
     4  3  2.50        -1.3606   0.0000                                         
   Description                                                                  
     l       E           TYP  RCUT    TYP  RCUT                                 
     2     -4.6457903     23  2.300                                             
     2     -6.0063729     23  2.300                                             
     0     -4.4925590     23  2.300                                             
     0      5.0102601     23  2.300                                             
     1     -2.7211652     23  2.300                                             
     1     16.5183231     23  2.300                                             
  local pseudopotential read in
  partial core-charges read in
  partial kinetic energy density read in
  atomic valenz-charges read in
  non local Contribution for L=           2  read in
    real space projection operators read in
  non local Contribution for L=           2  read in
    real space projection operators read in
  non local Contribution for L=           0  read in
    real space projection operators read in
  non local Contribution for L=           0  read in
    real space projection operators read in
  non local Contribution for L=           1  read in
    real space projection operators read in
  non local Contribution for L=           1  read in
    real space projection operators read in
    PAW grid and wavefunctions read in
 
   number of l-projection  operators is LMAX  =           6
   number of lm-projection operators is LMMAX =          18
 
 POTCAR:    PAW_PBE O 08Apr2002                   
   VRHFIN =O: s2p4                                                              
   LEXCH  = PE                                                                  
   EATOM  =   432.3788 eV,   31.7789 Ry                                         
                                                                                
   TITEL  = PAW_PBE O 08Apr2002                                                 
   LULTRA =        F    use ultrasoft PP ?                                      
   IUNSCR =        1    unscreen: 0-lin 1-nonlin 2-no                           
   RPACOR =    1.200    partial core radius                                     
   POMASS =   16.000; ZVAL   =    6.000    mass and valenz                      
   RCORE  =    1.520    outmost cutoff radius                                   
   RWIGS  =    1.550; RWIGS  =    0.820    wigner-seitz radius (au A)           
   ENMAX  =  400.000; ENMIN  =  300.000 eV                                      
   ICORE  =        2    local potential                                         
   LCOR   =        T    correct aug charges                                     
   LPAW   =        T    paw PP                                                  
   EAUG   =  605.392                                                            
   DEXC   =    0.000                                                            
   RMAX   =    1.553    core radius for proj-oper                               
   RAUG   =    1.300    factor for augmentation sphere                          
   RDEP   =    1.550    radius for radial grids                                 
   RDEPT  =    1.329    core radius for aug-charge                              
                                                                                
   Atomic configuration                                                         
    4 entries                                                                   
     n  l   j            E        occ.                                          
     1  0  0.50      -514.6923   2.0000                                         
     2  0  0.50       -23.9615   2.0000                                         
     2  1  0.50        -9.0305   4.0000                                         
     3  2  1.50        -9.5241   0.0000                                         
   Description                                                                  
     l       E           TYP  RCUT    TYP  RCUT                                 
     0    -23.9615318     23  1.200                                             
     0     -9.5240782     23  1.200                                             
     1     -9.0304911     23  1.520                                             
     1      8.1634956     23  1.520                                             
     2     -9.5240782      7  1.500                                             
  local pseudopotential read in
  partial core-charges read in
  partial kinetic energy density read in
  kinetic energy density of atom read in
  atomic valenz-charges read in
  non local Contribution for L=           0  read in
    real space projection operators read in
  non local Contribution for L=           0  read in
    real space projection operators read in
  non local Contribution for L=           1  read in
    real space projection operators read in
  non local Contribution for L=           1  read in
    real space projection operators read in
    PAW grid and wavefunctions read in
 
   number of l-projection  operators is LMAX  =           4
   number of lm-projection operators is LMMAX =           8
 
 Optimization of the real space projectors (new method)

 maximal supplied QI-value         = 13.42
 optimisation between [QCUT,QGAM] = [ 11.67, 23.35] = [ 38.16,152.62] Ry 
 Optimized for a Real-space Cutoff    1.63 Angstroem

   l    n(q)    QCUT    max X(q) W(low)/X(q) W(high)/X(q)  e(spline) 
   0     11    11.673    13.882    0.27E-04    0.79E-05    0.11E-06
   0     11    11.673    12.184    0.39E-04    0.13E-04    0.19E-06
   1     11    11.673     4.523    0.73E-05    0.76E-05    0.12E-06
   1     11    11.673     4.424    0.87E-05    0.13E-04    0.19E-06
   2     10    11.673    52.481    0.65E-04    0.36E-04    0.18E-06
   2     10    11.673    38.501    0.61E-04    0.33E-04    0.17E-06
   3     10    11.673    65.631    0.17E-03    0.14E-03    0.37E-06
   3     10    11.673    56.854    0.17E-03    0.14E-03    0.37E-06
 Optimization of the real space projectors (new method)

 maximal supplied QI-value         = 16.25
 optimisation between [QCUT,QGAM] = [ 11.54, 23.24] = [ 37.28,151.24] Ry 
 Optimized for a Real-space Cutoff    1.53 Angstroem

   l    n(q)    QCUT    max X(q) W(low)/X(q) W(high)/X(q)  e(spline) 
   2     10    11.539   110.144    0.12E-03    0.13E-03    0.25E-06
   2     10    11.539   103.200    0.12E-03    0.13E-03    0.25E-06
   0     11    11.539    68.437    0.46E-04    0.21E-04    0.32E-06
   0     11    11.539    33.971    0.37E-04    0.19E-04    0.29E-06
   1     10    11.539    17.065    0.51E-04    0.22E-04    0.13E-06
   1     10    11.539    12.540    0.41E-04    0.18E-04    0.11E-06
 Optimization of the real space projectors (new method)

 maximal supplied QI-value         = 16.25
 optimisation between [QCUT,QGAM] = [ 11.54, 23.24] = [ 37.28,151.24] Ry 
 Optimized for a Real-space Cutoff    1.45 Angstroem

   l    n(q)    QCUT    max X(q) W(low)/X(q) W(high)/X(q)  e(spline) 
   2      9    11.539    60.317    0.19E-03    0.47E-04    0.16E-06
   2      9    11.539    55.921    0.19E-03    0.48E-04    0.16E-06
   0     10    11.539    51.690    0.80E-04    0.50E-04    0.24E-06
   0     10    11.539    30.015    0.73E-04    0.45E-04    0.22E-06
   1     10    11.539    18.849    0.87E-04    0.16E-03    0.71E-07
   1     10    11.539    14.624    0.73E-04    0.13E-03    0.64E-07
 Optimization of the real space projectors (new method)

 maximal supplied QI-value         = 24.76
 optimisation between [QCUT,QGAM] = [ 11.64, 23.27] = [ 37.91,151.63] Ry 
 Optimized for a Real-space Cutoff    1.14 Angstroem

   l    n(q)    QCUT    max X(q) W(low)/X(q) W(high)/X(q)  e(spline) 
   0      8    11.635    20.381    0.10E-03    0.33E-03    0.24E-06
   0      8    11.635    15.268    0.11E-03    0.35E-03    0.26E-06
   1      7    11.635     5.964    0.24E-03    0.31E-03    0.30E-06
   1      7    11.635     5.382    0.22E-03    0.25E-03    0.26E-06
  PAW_PBE La 06Sep2000                  :
 energy of atom  1       EATOM= -865.9763
 kinetic energy error for atom=    0.0009 (will be added to EATOM!!)
  PAW_PBE Mn 06Sep2000                  :
 energy of atom  2       EATOM= -416.7541
 kinetic energy error for atom=    0.0024 (will be added to EATOM!!)
  PAW_PBE Ni 02Aug2007                  :
 energy of atom  3       EATOM=-1077.6739
 kinetic energy error for atom=    0.0030 (will be added to EATOM!!)
  PAW_PBE O 08Apr2002                   :
 energy of atom  4       EATOM= -432.3788
 kinetic energy error for atom=    0.0208 (will be added to EATOM!!)
 
 
 POSCAR: SCEL6_6_1_1_0_5_5/1                     
  positions in direct lattice
  velocities in cartesian coordinates
 exchange correlation table for  LEXCH =        8
   RHO(1)=    0.500       N(1)  =     2000
   RHO(2)=  100.500       N(2)  =     4000
 


--------------------------------------------------------------------------------------------------------


 ion  position               nearest neighbor table
   1  0.667  0.333  0.843-  17 2.64  23 2.64  29 2.64  22 2.76  16 2.76  28 2.76  28 2.76  16 2.76
                            22 2.76  11 3.24  10 3.34  10 3.34  10 3.34   9 3.43   9 3.43   9 3.43
   2  0.333  0.667  0.667-  28 2.73  22 2.73  16 2.73  14 2.73  20 2.73  26 2.73  21 2.76  27 2.76
                            15 2.76  15 2.76  21 2.76  27 2.76   8 3.38  10 3.38   9 3.38   9 3.38
   3  0.000  0.000  0.491-  13 2.64  19 2.64  25 2.64  14 2.76  20 2.76  26 2.76  26 2.76  20 2.76
                            14 2.76  12 3.24   8 3.34   8 3.34   8 3.34   7 3.43   7 3.43   7 3.43
   4  0.667  0.333  0.314-  30 2.56  24 2.56  18 2.56  19 2.78  13 2.78  25 2.78  25 2.78  13 2.78
                            19 2.78  11 3.15  12 3.30  12 3.30  12 3.30
   5  0.333  0.667  0.167-  18 2.76  24 2.76  30 2.76  18 2.76  24 2.76  30 2.76  25 2.79  19 2.79
                            13 2.79  17 2.79  23 2.79  29 2.79   8 3.40  10 3.40
   6  0.000  0.000  0.019-  18 2.56  24 2.56  30 2.56  17 2.78  23 2.78  29 2.78  29 2.78  17 2.78
                            23 2.78  12 3.15  11 3.30  11 3.30  11 3.30
   7  0.667  0.333  0.584-  27 1.95  21 1.95  15 1.95  14 1.97  20 1.97  26 1.97   2 3.38   2 3.38
                             2 3.38   3 3.43   3 3.43   3 3.43
   8  0.333  0.667  0.417-  25 1.91  19 1.91  13 1.91  20 1.93  14 1.93  26 1.93   3 3.34   3 3.34
                             3 3.34   2 3.38   5 3.40
   9  0.000  0.000  0.750-  15 1.95  21 1.95  27 1.95  22 1.97  16 1.97  28 1.97   2 3.38   2 3.38
                             2 3.38   1 3.43   1 3.43   1 3.43
  10  0.333  0.667  0.916-  17 1.91  23 1.91  29 1.91  28 1.93  22 1.93  16 1.93   1 3.34   1 3.34
                             1 3.34   2 3.38   5 3.40
  11  0.667  0.333  0.082-  30 1.97  24 1.97  18 1.97  17 1.99  23 1.99  29 1.99   4 3.15   1 3.24
                             6 3.30   6 3.30   6 3.30
  12  0.000  0.000  0.252-  18 1.97  24 1.97  30 1.97  13 1.99  19 1.99  25 1.99   6 3.15   3 3.24
                             4 3.30   4 3.30   4 3.30
  13  0.661  0.831  0.337-   8 1.91  12 1.99   3 2.64   4 2.78   4 2.78   5 2.79
  14  0.007  0.504  0.501-   8 1.93   7 1.97   2 2.73   3 2.76   3 2.76
  15  0.333  0.167  0.667-   9 1.95   7 1.95   2 2.76   2 2.76
  16  0.659  0.830  0.832-  10 1.93   9 1.97   2 2.73   1 2.76   1 2.76
  17  0.006  0.503  0.997-  10 1.91  11 1.99   1 2.64   6 2.78   6 2.78   5 2.79
  18  0.333  0.167  0.167-  12 1.97  11 1.97   4 2.56   6 2.56   5 2.76   5 2.76
  19  0.169  0.339  0.337-   8 1.91  12 1.99   3 2.64   4 2.78   4 2.78   5 2.79
  20  0.496  0.993  0.501-   8 1.93   7 1.97   2 2.73   3 2.76   3 2.76
  21  0.833  0.667  0.667-   9 1.95   7 1.95   2 2.76   2 2.76
  22  0.170  0.341  0.832-  10 1.93   9 1.97   2 2.73   1 2.76   1 2.76
  23  0.497  0.994  0.997-  10 1.91  11 1.99   1 2.64   6 2.78   6 2.78   5 2.79
  24  0.833  0.667  0.167-  12 1.97  11 1.97   4 2.56   6 2.56   5 2.76   5 2.76
  25  0.169  0.831  0.337-   8 1.91  12 1.99   3 2.64   4 2.78   4 2.78   5 2.79
  26  0.496  0.504  0.501-   8 1.93   7 1.97   2 2.73   3 2.76   3 2.76
  27  0.833  0.167  0.667-   9 1.95   7 1.95   2 2.76   2 2.76
  28  0.170  0.830  0.832-  10 1.93   9 1.97   2 2.73   1 2.76   1 2.76
  29  0.497  0.503  0.997-  10 1.91  11 1.99   1 2.64   6 2.78   6 2.78   5 2.79
  30  0.833  0.167  0.167-  12 1.97  11 1.97   4 2.56   6 2.56   5 2.76   5 2.76
 
  LATTYP: Found a hexagonal cell.
 ALAT       =     5.5197860346
 C/A-ratio  =     2.4547873462
  
  Lattice vectors:
  
 A1 = (   3.9030781358,   0.0000000000,  -3.9030781358)
 A2 = (  -3.9030781358,   3.9030781358,   0.0000000000)
 A3 = (   7.8230389388,   7.8230389388,   7.8230389388)


Analysis of symmetry for initial positions (statically):
=====================================================================
 Subroutine PRICEL returns:
 Original cell was already a primitive cell.
 

 Routine SETGRP: Setting up the symmetry group for a 
 hexagonal supercell.


 Subroutine GETGRP returns: Found 12 space group operations
 (whereof  6 operations were pure point group operations)
 out of a pool of 24 trial point group operations.


The static configuration has the point symmetry C_3v.
 The point group associated with its full space group is D_3d.


Analysis of symmetry for dynamics (positions and initial velocities):
=====================================================================
 Subroutine PRICEL returns:
 Original cell was already a primitive cell.
 

 Routine SETGRP: Setting up the symmetry group for a 
 hexagonal supercell.


 Subroutine GETGRP returns: Found 12 space group operations
 (whereof  6 operations were pure point group operations)
 out of a pool of 24 trial point group operations.


The dynamic configuration has the point symmetry C_3v.
 The point group associated with its full space group is D_3d.


Analysis of structural, dynamic, and magnetic symmetry:
=====================================================================
 Subroutine PRICEL returns:
 Original cell was already a primitive cell.
 

 Routine SETGRP: Setting up the symmetry group for a 
 hexagonal supercell.


 Subroutine GETGRP returns: Found 12 space group operations
 (whereof  6 operations were pure point group operations)
 out of a pool of 24 trial point group operations.


The magnetic configuration has the point symmetry C_3v.
 The point group associated with its full space group is D_3d.


 Subroutine INISYM returns: Found 12 space group operations
 (whereof  6 operations are pure point group operations),
 and found     1 'primitive' translations

 
 
 KPOINTS: Automatic mesh                          

Automatic generation of k-mesh.
 generate k-points for:    4    4    1
Space group operators:
 irot       det(A)        alpha          n_x          n_y          n_z        tau_x        tau_y        tau_z
    1     1.000000     0.000000     1.000000     0.000000     0.000000     0.000000     0.000000     0.000000
    2     1.000000   120.000000    -0.577350    -0.577350    -0.577350     0.000000     0.000000     0.000000
    3     1.000000   120.000000     0.577350     0.577350     0.577350     0.000000     0.000000     0.000000
    4    -1.000000   180.000000     0.707107     0.000000    -0.707107     0.000000     0.000000     0.000000
    5    -1.000000   180.000000     0.707107    -0.707107     0.000000     0.000000     0.000000     0.000000
    6    -1.000000   180.000000     0.000000    -0.707107     0.707107     0.000000     0.000000     0.000000
    7    -1.000000     0.000000     1.000000     0.000000     0.000000     0.666667     0.333333     0.333333
    8    -1.000000   120.000000    -0.577350    -0.577350    -0.577350     0.666667     0.333333     0.333333
    9    -1.000000   120.000000     0.577350     0.577350     0.577350     0.666667     0.333333     0.333333
   10     1.000000   180.000000     0.707107     0.000000    -0.707107     0.666667     0.333333     0.333333
   11     1.000000   180.000000     0.707107    -0.707107     0.000000     0.666667     0.333333     0.333333
   12     1.000000   180.000000     0.000000    -0.707107     0.707107     0.666667     0.333333     0.333333
 
 Subroutine IBZKPT returns following result:
 ===========================================
 
 Found      4 irreducible k-points:
 
 Following reciprocal coordinates:
            Coordinates               Weight
  0.000000  0.000000  0.000000      1.000000
  0.250000  0.000000  0.000000      6.000000
  0.500000  0.000000  0.000000      3.000000
  0.250000  0.250000  0.000000      6.000000
 
 Following cartesian coordinates:
            Coordinates               Weight
  0.000000  0.000000  0.000000      1.000000
  0.021351  0.021351 -0.042701      6.000000
  0.042701  0.042701 -0.085403      3.000000
  0.000000  0.064052 -0.064052      6.000000
 
 TETIRR: Found     10 inequivalent tetrahedra from       96


--------------------------------------------------------------------------------------------------------




 Dimension of arrays:
   k-points           NKPTS =      4   k-points in BZ     NKDIM =      4   number of bands    NBANDS=    144
   number of dos      NEDOS =    301   number of ions     NIONS =     30
   non local maximal  LDIM  =      8   non local SUM 2l+1 LMDIM =     32
   total plane-waves  NPLWV = 190512
   max r-space proj   IRMAX =   9667   max aug-charges    IRDMAX=  28040
   dimension x,y,z NGX =    42 NGY =   42 NGZ =  108
   dimension x,y,z NGXF=    84 NGYF=   84 NGZF=  216
   support grid    NGXF=    84 NGYF=   84 NGZF=  216
   ions per type =               6   4   2  18
   NGX,Y,Z   is equivalent  to a cutoff of  12.65, 12.65, 13.25 a.u.
   NGXF,Y,Z  is equivalent  to a cutoff of  25.30, 25.30, 26.50 a.u.

 SYSTEM =  final                                   
 POSCAR =  SCEL6_6_1_1_0_5_5/1                     

 Startparameter for this run:
   NWRITE =      2    write-flag & timer
   PREC   = accura    normal or accurate (medium, high low for compatibility)
   ISTART =      0    job   : 0-new  1-cont  2-samecut
   ICHARG =      1    charge: 1-file 2-atom 10-const
   ISPIN  =      2    spin polarized calculation?
   LNONCOLLINEAR =      F non collinear calculations
   LSORBIT =      F    spin-orbit coupling
   INIWAV =      1    electr: 0-lowe 1-rand  2-diag
   LASPH  =      F    aspherical Exc in radial PAW
   METAGGA=      F    non-selfconsistent MetaGGA calc.

 Electronic Relaxation 1
   ENCUT  =  520.0 eV  38.22 Ry    6.18 a.u.  10.26 10.26 25.19*2*pi/ulx,y,z
   ENINI  =  520.0     initial cutoff
   ENAUG  =  605.4 eV  augmentation charge cutoff
   NELM   =    100;   NELMIN=  2; NELMDL= -5     # of ELM steps 
   EDIFF  = 0.1E-02   stopping-criterion for ELM
   LREAL  =      T    real-space projection
   NLSPLINE    = F    spline interpolate recip. space projectors
   LCOMPAT=      F    compatible to vasp.4.4
   GGA_COMPAT  = T    GGA compatible to vasp.4.4-vasp.4.6
   LMAXPAW     = -100 max onsite density
   LMAXMIX     =    6 max onsite mixed and CHGCAR
   VOSKOWN=      0    Vosko Wilk Nusair interpolation
   ROPT   =   -0.00025  -0.00025  -0.00025  -0.00025
 Ionic relaxation
   EDIFFG = 0.1E-01   stopping-criterion for IOM
   NSW    =      0    number of steps for IOM
   NBLOCK =      1;   KBLOCK =      1    inner block; outer block 
   IBRION =     -1    ionic relax: 0-MD 1-quasi-New 2-CG
   NFREE  =      0    steps in history (QN), initial steepest desc. (CG)
   ISIF   =      2    stress and relaxation
   IWAVPR =     10    prediction:  0-non 1-charg 2-wave 3-comb
   ISYM   =      2    0-nonsym 1-usesym 2-fastsym
   LCORR  =      T    Harris-Foulkes like correction to forces

   POTIM  = 0.5000    time-step for ionic-motion
   TEIN   =    0.0    initial temperature
   TEBEG  =    0.0;   TEEND  =   0.0 temperature during run
   SMASS  =  -3.00    Nose mass-parameter (am)
   estimated Nose-frequenzy (Omega)   =  0.10E-29 period in steps =****** mass=  -0.696E-27a.u.
   SCALEE = 1.0000    scale energy and forces
   NPACO  =    256;   APACO  = 16.0  distance and # of slots for P.C.
   PSTRESS=    0.0 pullay stress

  Mass of Ions in am
   POMASS = 138.90 54.94 58.69 16.00
  Ionic Valenz
   ZVAL   =  11.00  7.00 10.00  6.00
  Atomic Wigner-Seitz radii
   RWIGS  =  -1.00 -1.00 -1.00 -1.00
  virtual crystal weights 
   VCA    =   1.00  1.00  1.00  1.00
   NELECT =     222.0000    total number of electrons
   NUPDOWN=      -1.0000    fix difference up-down

 DOS related values:
   EMIN   =  10.00;   EMAX   =-10.00  energy-range for DOS
   EFERMI =   0.00
   ISMEAR =    -5;   SIGMA  =   0.05  broadening in eV -4-tet -1-fermi 0-gaus

 Electronic relaxation 2 (details)
   IALGO  =     68    algorithm
   LDIAG  =      T    sub-space diagonalisation (order eigenvalues)
   LSUBROT=      F    optimize rotation matrix (better conditioning)
   TURBO    =      0    0=normal 1=particle mesh
   IRESTART =      0    0=no restart 2=restart with 2 vectors
   NREBOOT  =      0    no. of reboots
   NMIN     =      0    reboot dimension
   EREF     =   0.00    reference energy to select bands
   IMIX   =      4    mixing-type and parameters
     AMIX     =   0.40;   BMIX     =  1.00
     AMIX_MAG =   1.60;   BMIX_MAG =  1.00
     AMIN     =   0.10
     WC   =   100.;   INIMIX=   1;  MIXPRE=   1;  MAXMIX= -45

 Intra band minimization:
   WEIMIN = 0.0000     energy-eigenvalue tresh-hold
   EBREAK =  0.17E-05  absolut break condition
   DEPER  =   0.30     relativ break condition  

   TIME   =   0.40     timestep for ELM

  volume/ion in A,a.u.               =      11.92        80.42
  Fermi-wavevector in a.u.,A,eV,Ry     =   1.396654  2.639293 26.540090  1.950642
  Thomas-Fermi vector in A             =   2.519987
 
 Write flags
   LWAVE        =      F    write WAVECAR
   LDOWNSAMPLE  =      F    k-point downsampling of WAVECAR
   LCHARG       =      T    write CHGCAR
   LVTOT        =      F    write LOCPOT, total local potential
   LVHAR        =      F    write LOCPOT, Hartree potential only
   LELF         =      F    write electronic localiz. function (ELF)
   LORBIT       =     11    0 simple, 1 ext, 2 COOP (PROOUT), +10 PAW based schemes


 Dipole corrections
   LMONO  =      F    monopole corrections only (constant potential shift)
   LDIPOL =      F    correct potential (dipole corrections)
   IDIPOL =      0    1-x, 2-y, 3-z, 4-all directions 
   EPSILON=  1.0000000 bulk dielectric constant

 LDA+U is selected, type is set to LDAUTYPE =  2
   angular momentum for each species LDAUL =     0    2    2    0
   U (eV)           for each species LDAUU =   0.0  3.9  6.2  0.0
   J (eV)           for each species LDAUJ =   0.0  0.0  0.0  0.0
 Exchange correlation treatment:
   GGA     =    --    GGA type
   LEXCH   =     8    internal setting for exchange type
   VOSKOWN=      0    Vosko Wilk Nusair interpolation
   LHFCALC =     F    Hartree Fock is set to
   LHFONE  =     F    Hartree Fock one center treatment
   AEXX    =    0.0000 exact exchange contribution

 Linear response parameters
   LEPSILON=     F    determine dielectric tensor
   LRPA    =     F    only Hartree local field effects (RPA)
   LNABLA  =     F    use nabla operator in PAW spheres
   LVEL    =     F    velocity operator in full k-point grid
   LINTERFAST=   F  fast interpolation
   KINTER  =     0    interpolate to denser k-point grid
   CSHIFT  =0.1000    complex shift for real part using Kramers Kronig
   OMEGAMAX=  -1.0    maximum frequency
   DEG_THRESHOLD= 0.2000000E-02 threshold for treating states as degnerate
   RTIME   =   -0.100 relaxation time in fs
  (WPLASMAI=    0.000 imaginary part of plasma frequency in eV, 0.658/RTIME)
   DFIELD  = 0.0000000 0.0000000 0.0000000 field for delta impulse in time
 
 Orbital magnetization related:
   ORBITALMAG=     F  switch on orbital magnetization
   LCHIMAG   =     F  perturbation theory with respect to B field
   DQ        =  0.001000  dq finite difference perturbation B field
   LLRAUG    =     F  two centre corrections for induced B field



--------------------------------------------------------------------------------------------------------


 Static calculation
 charge density and potential will be updated during run
 spin polarized calculation
 RMM-DIIS sequential band-by-band and
  variant of blocked Davidson during initial phase
 perform sub-space diagonalisation
    before iterative eigenvector-optimisation
 modified Broyden-mixing scheme, WC =      100.0
 initial mixing is a Kerker type mixing with AMIX =  0.4000 and BMIX =      1.0000
 Hartree-type preconditioning will be used
 using additional bands           33
 real space projection scheme for non local part
 use partial core corrections
 calculate Harris-corrections to forces 
   (improved forces if not selfconsistent)
 use gradient corrections 
 use of overlap-Matrix (Vanderbilt PP)
 Fermi weights with tetrahedron method with Bloechl corrections


--------------------------------------------------------------------------------------------------------


  energy-cutoff  :      520.00
  volume of cell :      357.53
      direct lattice vectors                 reciprocal lattice vectors
     3.903078136  0.000000000 -3.903078136     0.085402680  0.085402680 -0.170805360
    -3.903078136  3.903078136  0.000000000    -0.085402680  0.170805360 -0.085402680
     7.823038939  7.823038939  7.823038939     0.042609188  0.042609188  0.042609188

  length of vectors
     5.519786035  5.519786035 13.549900912     0.209192989  0.209192989  0.073801278


 
 k-points in units of 2pi/SCALE and weight: Automatic mesh                          
   0.00000000  0.00000000  0.00000000       0.062
   0.02135067  0.02135067 -0.04270134       0.375
   0.04270134  0.04270134 -0.08540268       0.188
   0.00000000  0.06405201 -0.06405201       0.375
 
 k-points in reciprocal lattice and weights: Automatic mesh                          
   0.00000000  0.00000000  0.00000000       0.062
   0.25000000  0.00000000  0.00000000       0.375
   0.50000000  0.00000000  0.00000000       0.188
   0.25000000  0.25000000  0.00000000       0.375
 
 position of ions in fractional coordinates (direct lattice) 
   0.66666670  0.33333330  0.84268459
   0.33333330  0.66666670  0.66666670
   0.00000000  0.00000000  0.49064871
   0.66666670  0.33333330  0.31445345
   0.33333330  0.66666670  0.16666670
   0.00000000  0.00000000  0.01887985
   0.66666670  0.33333330  0.58350282
   0.33333330  0.66666670  0.41741845
   0.00000000  0.00000000  0.74983048
   0.33333330  0.66666670  0.91591495
   0.66666670  0.33333330  0.08163163
   0.00000000  0.00000000  0.25170167
   0.66108039  0.83054014  0.33676379
   0.00736711  0.50368356  0.50137233
   0.33333330  0.16666670  0.66666670
   0.65929959  0.82964974  0.83196097
   0.00558631  0.50279316  0.99656951
   0.33333330  0.16666670  0.16666670
   0.16945986  0.33891961  0.33676379
   0.49631644  0.99263289  0.50137233
   0.83333330  0.66666670  0.66666670
   0.17035026  0.34070041  0.83196097
   0.49720684  0.99441369  0.99656951
   0.83333330  0.66666670  0.16666670
   0.16945986  0.83054014  0.33676379
   0.49631644  0.50368356  0.50137233
   0.83333330  0.16666670  0.66666670
   0.17035026  0.82964974  0.83196097
   0.49720684  0.50279316  0.99656951
   0.83333330  0.16666670  0.16666670
 
 position of ions in cartesian coordinates  (Angst):
   7.89338063  7.89338024  3.99030211
   3.91433325  7.81741177  3.91433364
   3.83836399  3.83836399  3.83836399
   3.76100787  3.76100748 -0.14207066
   0.00281378  3.90589230  0.00281417
   0.14769782  0.14769782  0.14769782
   5.86579160  5.86579121  1.96271307
   1.96445445  5.86753297  1.96445484
   5.86595303  5.86595303  5.86595303
   5.86421205  9.76729057  5.86421244
   1.93963369  1.93963330 -1.96344483
   1.96907200  1.96907200  1.96907200
   1.97310154  5.87617929  0.05426780
   1.98509340  5.88817154  3.89350084
   5.86587232  5.86587271  3.91433364
   5.84357309  9.74665084  3.93516526
   5.85556495  9.75864309  7.77439830
   1.95435285  1.95435324  0.00281417
   1.97310154  3.95734594  1.97310115
   1.98509340  7.79657898  1.98509340
   5.86587232  7.81741177  1.96279457
   5.84357309  7.83824340  5.84357270
   5.85556495 11.67747644  5.85556495
   1.95435285  3.90589230 -1.94872490
   0.05426819  5.87617929  1.97310115
   3.89350084  5.88817154  1.98509340
   7.81741138  5.86587271  1.96279457
   3.93516565  9.74665084  5.84357270
   7.77439830  9.75864309  5.85556495
   3.90589191  1.95435324 -1.94872490
 


--------------------------------------------------------------------------------------------------------


 k-point  1 :   0.0000 0.0000 0.0000  plane waves:    9597
 k-point  2 :   0.2500 0.0000 0.0000  plane waves:    9608
 k-point  3 :   0.5000 0.0000 0.0000  plane waves:    9656
 k-point  4 :   0.2500 0.2500 0.0000  plane waves:    9608

 maximum and minimum number of plane-waves per node :       976      941

 maximum number of plane-waves:      9656
 maximum index in each direction: 
   IXMAX=   10   IYMAX=   10   IZMAX=   25
   IXMIN=  -10   IYMIN=  -10   IZMIN=  -25


 real space projection operators:
  total allocation   :      23849.91 KBytes
  max/ min on nodes  :       2746.22       2274.66


 parallel 3D FFT for wavefunctions:
    minimum data exchange during FFTs selected (reduces bandwidth)
 parallel 3D FFT for charge:
    minimum data exchange during FFTs selected (reduces bandwidth)


 total amount of memory used by VASP MPI-rank0    62247. kBytes
=======================================================================

   base      :      30000. kBytes
   nonlr-proj:       8312. kBytes
   fftplans  :       3626. kBytes
   grid      :      10597. kBytes
   one-center:        294. kBytes
   wavefun   :       9418. kBytes
 
     INWAV:  cpu time    0.0000: real time    0.0001
 Broyden mixing: mesh for mixing (old mesh)
   NGX = 21   NGY = 21   NGZ = 51
  (NGX  = 84   NGY  = 84   NGZ  =216)
  gives a total of  22491 points

 initial charge density was supplied:
 charge density of overlapping atoms calculated
 number of electron     222.0000000 magnetization      22.0000000
 keeping initial charge density in first step


--------------------------------------------------------------------------------------------------------


 Maximum index for non-local projection operator         1372
 Maximum index for augmentation-charges         1996 (set IRDMAX)


--------------------------------------------------------------------------------------------------------


 First call to EWALD:  gamma=   0.250
 Maximum number of real-space cells 4x 4x 2
 Maximum number of reciprocal cells 2x 2x 5

    FEWALD:  cpu time    0.0019: real time    0.0022


--------------------------------------- Iteration      1(   1)  ---------------------------------------


    POTLOK:  cpu time    0.1034: real time    0.1073
    SETDIJ:  cpu time    0.0175: real time    0.0175
atom =   1  type =  1  l = 0
 
 onsite density matrix
 
spin component  1
 
  1.0989
 
spin component  2
 
  1.0989
 
 occupancies and eigenvectors
 
  o =  1.0989  v =  1.0000  0.0000      0.0000  0.0000
  o =  1.0989  v =  0.0000  1.0000      0.0000  0.0000
atom =   2  type =  1  l = 0
 
 onsite density matrix
 
spin component  1
 
  1.0989
 
spin component  2
 
  1.0989
 
 occupancies and eigenvectors
 
  o =  1.0989  v =  1.0000  0.0000      0.0000  0.0000
  o =  1.0989  v =  0.0000  1.0000      0.0000  0.0000
atom =   3  type =  1  l = 0
 
 onsite density matrix
 
spin component  1
 
  1.0989
 
spin component  2
 
  1.0989
 
 occupancies and eigenvectors
 
  o =  1.0989  v =  1.0000  0.0000      0.0000  0.0000
  o =  1.0989  v =  0.0000  1.0000      0.0000  0.0000
atom =   4  type =  1  l = 0
 
 onsite density matrix
 
spin component  1
 
  1.0989
 
spin component  2
 
  1.0989
 
 occupancies and eigenvectors
 
  o =  1.0989  v =  1.0000  0.0000      0.0000  0.0000
  o =  1.0989  v =  0.0000  1.0000      0.0000  0.0000
atom =   5  type =  1  l = 0
 
 onsite density matrix
 
spin component  1
 
  1.0989
 
spin component  2
 
  1.0989
 
 occupancies and eigenvectors
 
  o =  1.0989  v =  1.0000  0.0000      0.0000  0.0000
  o =  1.0989  v =  0.0000  1.0000      0.0000  0.0000
atom =   6  type =  1  l = 0
 
 onsite density matrix
 
spin component  1
 
  1.0989
 
spin component  2
 
  1.0989
 
 occupancies and eigenvectors
 
  o =  1.0989  v =  1.0000  0.0000      0.0000  0.0000
  o =  1.0989  v =  0.0000  1.0000      0.0000  0.0000
atom =   7  type =  2  l = 2
 
 onsite density matrix
 
spin component  1
 
  0.8272  0.0000  0.0000  0.0000  0.0000
  0.0000  0.8272  0.0000  0.0000  0.0000
  0.0000  0.0000  0.8272  0.0000  0.0000
  0.0000  0.0000  0.0000  0.8272  0.0000
  0.0000  0.0000  0.0000  0.0000  0.8272
 
spin component  2
 
  0.2256  0.0000  0.0000  0.0000  0.0000
  0.0000  0.2256  0.0000  0.0000  0.0000
  0.0000  0.0000  0.2256  0.0000  0.0000
  0.0000  0.0000  0.0000  0.2256  0.0000
  0.0000  0.0000  0.0000  0.0000  0.2256
 
 occupancies and eigenvectors
 
  o =  0.2256  v =  0.0000  0.0000  0.0000  0.0000  0.0000  0.0000  0.0000  1.0000  0.0000  0.0000      0.0000  0.0000  0.0000  0.0000  0.0000  0.0000  0.0000  0.0000  0.0000  0.0000
  o =  0.2256  v =  0.0000  0.0000  0.0000  0.0000  0.0000  1.0000  0.0000  0.0000  0.0000  0.0000      0.0000  0.0000  0.0000  0.0000  0.0000  0.0000  0.0000  0.0000  0.0000  0.0000
  o =  0.2256  v =  0.0000  0.0000  0.0000  0.0000  0.0000  0.0000  1.0000  0.0000  0.0000  0.0000      0.0000  0.0000  0.0000  0.0000  0.0000  0.0000  0.0000  0.0000  0.0000  0.0000
  o =  0.2256  v =  0.0000  0.0000  0.0000  0.0000  0.0000  0.0000  0.0000  0.0000  1.0000  0.0000      0.0000  0.0000  0.0000  0.0000  0.0000  0.0000  0.0000  0.0000  0.0000  0.0000
  o =  0.2256  v =  0.0000  0.0000  0.0000  0.0000  0.0000  0.0000  0.0000  0.0000  0.0000  1.0000      0.0000  0.0000  0.0000  0.0000  0.0000  0.0000  0.0000  0.0000  0.0000  0.0000
  o =  0.8272  v =  0.0000  1.0000  0.0000  0.0000  0.0000  0.0000  0.0000  0.0000  0.0000  0.0000      0.0000  0.0000  0.0000  0.0000  0.0000  0.0000  0.0000  0.0000  0.0000  0.0000
  o =  0.8272  v =  0.0000  0.0000  1.0000  0.0000  0.0000  0.0000  0.0000  0.0000  0.0000  0.0000      0.0000  0.0000  0.0000  0.0000  0.0000  0.0000  0.0000  0.0000  0.0000  0.0000
  o =  0.8272  v =  1.0000  0.0000  0.0000  0.0000  0.0000  0.0000  0.0000  0.0000  0.0000  0.0000      0.0000  0.0000  0.0000  0.0000  0.0000  0.0000  0.0000  0.0000  0.0000  0.0000
  o =  0.8272  v =  0.0000  0.0000  0.0000  1.0000  0.0000  0.0000  0.0000  0.0000  0.0000  0.0000      0.0000  0.0000  0.0000  0.0000  0.0000  0.0000  0.0000  0.0000  0.0000  0.0000
  o =  0.8272  v =  0.0000  0.0000  0.0000  0.0000  1.0000  0.0000  0.0000  0.0000  0.0000  0.0000      0.0000  0.0000  0.0000  0.0000  0.0000  0.0000  0.0000  0.0000  0.0000  0.0000
atom =   8  type =  2  l = 2
 
 onsite density matrix
 
spin component  1
 
  0.8272  0.0000  0.0000  0.0000  0.0000
  0.0000  0.8272  0.0000  0.0000  0.0000
  0.0000  0.0000  0.8272  0.0000  0.0000
  0.0000  0.0000  0.0000  0.8272  0.0000
  0.0000  0.0000  0.0000  0.0000  0.8272
 
spin component  2
 
  0.2256  0.0000  0.0000  0.0000  0.0000
  0.0000  0.2256  0.0000  0.0000  0.0000
  0.0000  0.0000  0.2256  0.0000  0.0000
  0.0000  0.0000  0.0000  0.2256  0.0000
  0.0000  0.0000  0.0000  0.0000  0.2256
 
 occupancies and eigenvectors
 
  o =  0.2256  v =  0.0000  0.0000  0.0000  0.0000  0.0000  0.0000  0.0000  1.0000  0.0000  0.0000      0.0000  0.0000  0.0000  0.0000  0.0000  0.0000  0.0000  0.0000  0.0000  0.0000
  o =  0.2256  v =  0.0000  0.0000  0.0000  0.0000  0.0000  1.0000  0.0000  0.0000  0.0000  0.0000      0.0000  0.0000  0.0000  0.0000  0.0000  0.0000  0.0000  0.0000  0.0000  0.0000
  o =  0.2256  v =  0.0000  0.0000  0.0000  0.0000  0.0000  0.0000  1.0000  0.0000  0.0000  0.0000      0.0000  0.0000  0.0000  0.0000  0.0000  0.0000  0.0000  0.0000  0.0000  0.0000
  o =  0.2256  v =  0.0000  0.0000  0.0000  0.0000  0.0000  0.0000  0.0000  0.0000  1.0000  0.0000      0.0000  0.0000  0.0000  0.0000  0.0000  0.0000  0.0000  0.0000  0.0000  0.0000
  o =  0.2256  v =  0.0000  0.0000  0.0000  0.0000  0.0000  0.0000  0.0000  0.0000  0.0000  1.0000      0.0000  0.0000  0.0000  0.0000  0.0000  0.0000  0.0000  0.0000  0.0000  0.0000
  o =  0.8272  v =  0.0000  1.0000  0.0000  0.0000  0.0000  0.0000  0.0000  0.0000  0.0000  0.0000      0.0000  0.0000  0.0000  0.0000  0.0000  0.0000  0.0000  0.0000  0.0000  0.0000
  o =  0.8272  v =  0.0000  0.0000  1.0000  0.0000  0.0000  0.0000  0.0000  0.0000  0.0000  0.0000      0.0000  0.0000  0.0000  0.0000  0.0000  0.0000  0.0000  0.0000  0.0000  0.0000
  o =  0.8272  v =  1.0000  0.0000  0.0000  0.0000  0.0000  0.0000  0.0000  0.0000  0.0000  0.0000      0.0000  0.0000  0.0000  0.0000  0.0000  0.0000  0.0000  0.0000  0.0000  0.0000
  o =  0.8272  v =  0.0000  0.0000  0.0000  1.0000  0.0000  0.0000  0.0000  0.0000  0.0000  0.0000      0.0000  0.0000  0.0000  0.0000  0.0000  0.0000  0.0000  0.0000  0.0000  0.0000
  o =  0.8272  v =  0.0000  0.0000  0.0000  0.0000  1.0000  0.0000  0.0000  0.0000  0.0000  0.0000      0.0000  0.0000  0.0000  0.0000  0.0000  0.0000  0.0000  0.0000  0.0000  0.0000
atom =   9  type =  2  l = 2
 
 onsite density matrix
 
spin component  1
 
  0.8272  0.0000  0.0000  0.0000  0.0000
  0.0000  0.8272  0.0000  0.0000  0.0000
  0.0000  0.0000  0.8272  0.0000  0.0000
  0.0000  0.0000  0.0000  0.8272  0.0000
  0.0000  0.0000  0.0000  0.0000  0.8272
 
spin component  2
 
  0.2256  0.0000  0.0000  0.0000  0.0000
  0.0000  0.2256  0.0000  0.0000  0.0000
  0.0000  0.0000  0.2256  0.0000  0.0000
  0.0000  0.0000  0.0000  0.2256  0.0000
  0.0000  0.0000  0.0000  0.0000  0.2256
 
 occupancies and eigenvectors
 
  o =  0.2256  v =  0.0000  0.0000  0.0000  0.0000  0.0000  0.0000  0.0000  1.0000  0.0000  0.0000      0.0000  0.0000  0.0000  0.0000  0.0000  0.0000  0.0000  0.0000  0.0000  0.0000
  o =  0.2256  v =  0.0000  0.0000  0.0000  0.0000  0.0000  1.0000  0.0000  0.0000  0.0000  0.0000      0.0000  0.0000  0.0000  0.0000  0.0000  0.0000  0.0000  0.0000  0.0000  0.0000
  o =  0.2256  v =  0.0000  0.0000  0.0000  0.0000  0.0000  0.0000  1.0000  0.0000  0.0000  0.0000      0.0000  0.0000  0.0000  0.0000  0.0000  0.0000  0.0000  0.0000  0.0000  0.0000
  o =  0.2256  v =  0.0000  0.0000  0.0000  0.0000  0.0000  0.0000  0.0000  0.0000  1.0000  0.0000      0.0000  0.0000  0.0000  0.0000  0.0000  0.0000  0.0000  0.0000  0.0000  0.0000
  o =  0.2256  v =  0.0000  0.0000  0.0000  0.0000  0.0000  0.0000  0.0000  0.0000  0.0000  1.0000      0.0000  0.0000  0.0000  0.0000  0.0000  0.0000  0.0000  0.0000  0.0000  0.0000
  o =  0.8272  v =  0.0000  1.0000  0.0000  0.0000  0.0000  0.0000  0.0000  0.0000  0.0000  0.0000      0.0000  0.0000  0.0000  0.0000  0.0000  0.0000  0.0000  0.0000  0.0000  0.0000
  o =  0.8272  v =  0.0000  0.0000  1.0000  0.0000  0.0000  0.0000  0.0000  0.0000  0.0000  0.0000      0.0000  0.0000  0.0000  0.0000  0.0000  0.0000  0.0000  0.0000  0.0000  0.0000
  o =  0.8272  v =  1.0000  0.0000  0.0000  0.0000  0.0000  0.0000  0.0000  0.0000  0.0000  0.0000      0.0000  0.0000  0.0000  0.0000  0.0000  0.0000  0.0000  0.0000  0.0000  0.0000
  o =  0.8272  v =  0.0000  0.0000  0.0000  1.0000  0.0000  0.0000  0.0000  0.0000  0.0000  0.0000      0.0000  0.0000  0.0000  0.0000  0.0000  0.0000  0.0000  0.0000  0.0000  0.0000
  o =  0.8272  v =  0.0000  0.0000  0.0000  0.0000  1.0000  0.0000  0.0000  0.0000  0.0000  0.0000      0.0000  0.0000  0.0000  0.0000  0.0000  0.0000  0.0000  0.0000  0.0000  0.0000
atom =  10  type =  2  l = 2
 
 onsite density matrix
 
spin component  1
 
  0.8272  0.0000  0.0000  0.0000  0.0000
  0.0000  0.8272  0.0000  0.0000  0.0000
  0.0000  0.0000  0.8272  0.0000  0.0000
  0.0000  0.0000  0.0000  0.8272  0.0000
  0.0000  0.0000  0.0000  0.0000  0.8272
 
spin component  2
 
  0.2256  0.0000  0.0000  0.0000  0.0000
  0.0000  0.2256  0.0000  0.0000  0.0000
  0.0000  0.0000  0.2256  0.0000  0.0000
  0.0000  0.0000  0.0000  0.2256  0.0000
  0.0000  0.0000  0.0000  0.0000  0.2256
 
 occupancies and eigenvectors
 
  o =  0.2256  v =  0.0000  0.0000  0.0000  0.0000  0.0000  0.0000  0.0000  1.0000  0.0000  0.0000      0.0000  0.0000  0.0000  0.0000  0.0000  0.0000  0.0000  0.0000  0.0000  0.0000
  o =  0.2256  v =  0.0000  0.0000  0.0000  0.0000  0.0000  1.0000  0.0000  0.0000  0.0000  0.0000      0.0000  0.0000  0.0000  0.0000  0.0000  0.0000  0.0000  0.0000  0.0000  0.0000
  o =  0.2256  v =  0.0000  0.0000  0.0000  0.0000  0.0000  0.0000  1.0000  0.0000  0.0000  0.0000      0.0000  0.0000  0.0000  0.0000  0.0000  0.0000  0.0000  0.0000  0.0000  0.0000
  o =  0.2256  v =  0.0000  0.0000  0.0000  0.0000  0.0000  0.0000  0.0000  0.0000  1.0000  0.0000      0.0000  0.0000  0.0000  0.0000  0.0000  0.0000  0.0000  0.0000  0.0000  0.0000
  o =  0.2256  v =  0.0000  0.0000  0.0000  0.0000  0.0000  0.0000  0.0000  0.0000  0.0000  1.0000      0.0000  0.0000  0.0000  0.0000  0.0000  0.0000  0.0000  0.0000  0.0000  0.0000
  o =  0.8272  v =  0.0000  1.0000  0.0000  0.0000  0.0000  0.0000  0.0000  0.0000  0.0000  0.0000      0.0000  0.0000  0.0000  0.0000  0.0000  0.0000  0.0000  0.0000  0.0000  0.0000
  o =  0.8272  v =  0.0000  0.0000  1.0000  0.0000  0.0000  0.0000  0.0000  0.0000  0.0000  0.0000      0.0000  0.0000  0.0000  0.0000  0.0000  0.0000  0.0000  0.0000  0.0000  0.0000
  o =  0.8272  v =  1.0000  0.0000  0.0000  0.0000  0.0000  0.0000  0.0000  0.0000  0.0000  0.0000      0.0000  0.0000  0.0000  0.0000  0.0000  0.0000  0.0000  0.0000  0.0000  0.0000
  o =  0.8272  v =  0.0000  0.0000  0.0000  1.0000  0.0000  0.0000  0.0000  0.0000  0.0000  0.0000      0.0000  0.0000  0.0000  0.0000  0.0000  0.0000  0.0000  0.0000  0.0000  0.0000
  o =  0.8272  v =  0.0000  0.0000  0.0000  0.0000  1.0000  0.0000  0.0000  0.0000  0.0000  0.0000      0.0000  0.0000  0.0000  0.0000  0.0000  0.0000  0.0000  0.0000  0.0000  0.0000
atom =  11  type =  3  l = 2
 
 onsite density matrix
 
spin component  1
 
  1.1008  0.0000  0.0000  0.0000  0.0000
  0.0000  1.1008  0.0000  0.0000  0.0000
  0.0000  0.0000  1.1008  0.0000  0.0000
  0.0000  0.0000  0.0000  1.1008  0.0000
  0.0000  0.0000  0.0000  0.0000  1.1008
 
spin component  2
 
  0.5927  0.0000  0.0000  0.0000  0.0000
  0.0000  0.5927  0.0000  0.0000  0.0000
  0.0000  0.0000  0.5927  0.0000  0.0000
  0.0000  0.0000  0.0000  0.5927  0.0000
  0.0000  0.0000  0.0000  0.0000  0.5927
 
 occupancies and eigenvectors
 
  o =  0.5927  v =  0.0000  0.0000  0.0000  0.0000  0.0000  1.0000  0.0000  0.0000  0.0000  0.0000      0.0000  0.0000  0.0000  0.0000  0.0000  0.0000  0.0000  0.0000  0.0000  0.0000
  o =  0.5927  v =  0.0000  0.0000  0.0000  0.0000  0.0000  0.0000  1.0000  0.0000  0.0000  0.0000      0.0000  0.0000  0.0000  0.0000  0.0000  0.0000  0.0000  0.0000  0.0000  0.0000
  o =  0.5927  v =  0.0000  0.0000  0.0000  0.0000  0.0000  0.0000  0.0000  1.0000  0.0000  0.0000      0.0000  0.0000  0.0000  0.0000  0.0000  0.0000  0.0000  0.0000  0.0000  0.0000
  o =  0.5927  v =  0.0000  0.0000  0.0000  0.0000  0.0000  0.0000  0.0000  0.0000  1.0000  0.0000      0.0000  0.0000  0.0000  0.0000  0.0000  0.0000  0.0000  0.0000  0.0000  0.0000
  o =  0.5927  v =  0.0000  0.0000  0.0000  0.0000  0.0000  0.0000  0.0000  0.0000  0.0000  1.0000      0.0000  0.0000  0.0000  0.0000  0.0000  0.0000  0.0000  0.0000  0.0000  0.0000
  o =  1.1008  v =  1.0000  0.0000  0.0000  0.0000  0.0000  0.0000  0.0000  0.0000  0.0000  0.0000      0.0000  0.0000  0.0000  0.0000  0.0000  0.0000  0.0000  0.0000  0.0000  0.0000
  o =  1.1008  v =  0.0000  1.0000  0.0000  0.0000  0.0000  0.0000  0.0000  0.0000  0.0000  0.0000      0.0000  0.0000  0.0000  0.0000  0.0000  0.0000  0.0000  0.0000  0.0000  0.0000
  o =  1.1008  v =  0.0000  0.0000  1.0000  0.0000  0.0000  0.0000  0.0000  0.0000  0.0000  0.0000      0.0000  0.0000  0.0000  0.0000  0.0000  0.0000  0.0000  0.0000  0.0000  0.0000
  o =  1.1008  v =  0.0000  0.0000  0.0000  1.0000  0.0000  0.0000  0.0000  0.0000  0.0000  0.0000      0.0000  0.0000  0.0000  0.0000  0.0000  0.0000  0.0000  0.0000  0.0000  0.0000
  o =  1.1008  v =  0.0000  0.0000  0.0000  0.0000  1.0000  0.0000  0.0000  0.0000  0.0000  0.0000      0.0000  0.0000  0.0000  0.0000  0.0000  0.0000  0.0000  0.0000  0.0000  0.0000
atom =  12  type =  3  l = 2
 
 onsite density matrix
 
spin component  1
 
  1.1008  0.0000  0.0000  0.0000  0.0000
  0.0000  1.1008  0.0000  0.0000  0.0000
  0.0000  0.0000  1.1008  0.0000  0.0000
  0.0000  0.0000  0.0000  1.1008  0.0000
  0.0000  0.0000  0.0000  0.0000  1.1008
 
spin component  2
 
  0.5927  0.0000  0.0000  0.0000  0.0000
  0.0000  0.5927  0.0000  0.0000  0.0000
  0.0000  0.0000  0.5927  0.0000  0.0000
  0.0000  0.0000  0.0000  0.5927  0.0000
  0.0000  0.0000  0.0000  0.0000  0.5927
 
 occupancies and eigenvectors
 
  o =  0.5927  v =  0.0000  0.0000  0.0000  0.0000  0.0000  1.0000  0.0000  0.0000  0.0000  0.0000      0.0000  0.0000  0.0000  0.0000  0.0000  0.0000  0.0000  0.0000  0.0000  0.0000
  o =  0.5927  v =  0.0000  0.0000  0.0000  0.0000  0.0000  0.0000  1.0000  0.0000  0.0000  0.0000      0.0000  0.0000  0.0000  0.0000  0.0000  0.0000  0.0000  0.0000  0.0000  0.0000
  o =  0.5927  v =  0.0000  0.0000  0.0000  0.0000  0.0000  0.0000  0.0000  1.0000  0.0000  0.0000      0.0000  0.0000  0.0000  0.0000  0.0000  0.0000  0.0000  0.0000  0.0000  0.0000
  o =  0.5927  v =  0.0000  0.0000  0.0000  0.0000  0.0000  0.0000  0.0000  0.0000  1.0000  0.0000      0.0000  0.0000  0.0000  0.0000  0.0000  0.0000  0.0000  0.0000  0.0000  0.0000
  o =  0.5927  v =  0.0000  0.0000  0.0000  0.0000  0.0000  0.0000  0.0000  0.0000  0.0000  1.0000      0.0000  0.0000  0.0000  0.0000  0.0000  0.0000  0.0000  0.0000  0.0000  0.0000
  o =  1.1008  v =  1.0000  0.0000  0.0000  0.0000  0.0000  0.0000  0.0000  0.0000  0.0000  0.0000      0.0000  0.0000  0.0000  0.0000  0.0000  0.0000  0.0000  0.0000  0.0000  0.0000
  o =  1.1008  v =  0.0000  1.0000  0.0000  0.0000  0.0000  0.0000  0.0000  0.0000  0.0000  0.0000      0.0000  0.0000  0.0000  0.0000  0.0000  0.0000  0.0000  0.0000  0.0000  0.0000
  o =  1.1008  v =  0.0000  0.0000  1.0000  0.0000  0.0000  0.0000  0.0000  0.0000  0.0000  0.0000      0.0000  0.0000  0.0000  0.0000  0.0000  0.0000  0.0000  0.0000  0.0000  0.0000
  o =  1.1008  v =  0.0000  0.0000  0.0000  1.0000  0.0000  0.0000  0.0000  0.0000  0.0000  0.0000      0.0000  0.0000  0.0000  0.0000  0.0000  0.0000  0.0000  0.0000  0.0000  0.0000
  o =  1.1008  v =  0.0000  0.0000  0.0000  0.0000  1.0000  0.0000  0.0000  0.0000  0.0000  0.0000      0.0000  0.0000  0.0000  0.0000  0.0000  0.0000  0.0000  0.0000  0.0000  0.0000
atom =  13  type =  4  l = 0
 
 onsite density matrix
 
spin component  1
 
  0.8190
 
spin component  2
 
  0.8190
 
 occupancies and eigenvectors
 
  o =  0.8190  v =  1.0000  0.0000      0.0000  0.0000
  o =  0.8190  v =  0.0000  1.0000      0.0000  0.0000
atom =  14  type =  4  l = 0
 
 onsite density matrix
 
spin component  1
 
  0.8190
 
spin component  2
 
  0.8190
 
 occupancies and eigenvectors
 
  o =  0.8190  v =  1.0000  0.0000      0.0000  0.0000
  o =  0.8190  v =  0.0000  1.0000      0.0000  0.0000
atom =  15  type =  4  l = 0
 
 onsite density matrix
 
spin component  1
 
  0.8190
 
spin component  2
 
  0.8190
 
 occupancies and eigenvectors
 
  o =  0.8190  v =  1.0000  0.0000      0.0000  0.0000
  o =  0.8190  v =  0.0000  1.0000      0.0000  0.0000
atom =  16  type =  4  l = 0
 
 onsite density matrix
 
spin component  1
 
  0.8190
 
spin component  2
 
  0.8190
 
 occupancies and eigenvectors
 
  o =  0.8190  v =  1.0000  0.0000      0.0000  0.0000
  o =  0.8190  v =  0.0000  1.0000      0.0000  0.0000
atom =  17  type =  4  l = 0
 
 onsite density matrix
 
spin component  1
 
  0.8190
 
spin component  2
 
  0.8190
 
 occupancies and eigenvectors
 
  o =  0.8190  v =  1.0000  0.0000      0.0000  0.0000
  o =  0.8190  v =  0.0000  1.0000      0.0000  0.0000
atom =  18  type =  4  l = 0
 
 onsite density matrix
 
spin component  1
 
  0.8190
 
spin component  2
 
  0.8190
 
 occupancies and eigenvectors
 
  o =  0.8190  v =  1.0000  0.0000      0.0000  0.0000
  o =  0.8190  v =  0.0000  1.0000      0.0000  0.0000
atom =  19  type =  4  l = 0
 
 onsite density matrix
 
spin component  1
 
  0.8190
 
spin component  2
 
  0.8190
 
 occupancies and eigenvectors
 
  o =  0.8190  v =  1.0000  0.0000      0.0000  0.0000
  o =  0.8190  v =  0.0000  1.0000      0.0000  0.0000
atom =  20  type =  4  l = 0
 
 onsite density matrix
 
spin component  1
 
  0.8190
 
spin component  2
 
  0.8190
 
 occupancies and eigenvectors
 
  o =  0.8190  v =  1.0000  0.0000      0.0000  0.0000
  o =  0.8190  v =  0.0000  1.0000      0.0000  0.0000
atom =  21  type =  4  l = 0
 
 onsite density matrix
 
spin component  1
 
  0.8190
 
spin component  2
 
  0.8190
 
 occupancies and eigenvectors
 
  o =  0.8190  v =  1.0000  0.0000      0.0000  0.0000
  o =  0.8190  v =  0.0000  1.0000      0.0000  0.0000
atom =  22  type =  4  l = 0
 
 onsite density matrix
 
spin component  1
 
  0.8190
 
spin component  2
 
  0.8190
 
 occupancies and eigenvectors
 
  o =  0.8190  v =  1.0000  0.0000      0.0000  0.0000
  o =  0.8190  v =  0.0000  1.0000      0.0000  0.0000
atom =  23  type =  4  l = 0
 
 onsite density matrix
 
spin component  1
 
  0.8190
 
spin component  2
 
  0.8190
 
 occupancies and eigenvectors
 
  o =  0.8190  v =  1.0000  0.0000      0.0000  0.0000
  o =  0.8190  v =  0.0000  1.0000      0.0000  0.0000
atom =  24  type =  4  l = 0
 
 onsite density matrix
 
spin component  1
 
  0.8190
 
spin component  2
 
  0.8190
 
 occupancies and eigenvectors
 
  o =  0.8190  v =  1.0000  0.0000      0.0000  0.0000
  o =  0.8190  v =  0.0000  1.0000      0.0000  0.0000
atom =  25  type =  4  l = 0
 
 onsite density matrix
 
spin component  1
 
  0.8190
 
spin component  2
 
  0.8190
 
 occupancies and eigenvectors
 
  o =  0.8190  v =  1.0000  0.0000      0.0000  0.0000
  o =  0.8190  v =  0.0000  1.0000      0.0000  0.0000
atom =  26  type =  4  l = 0
 
 onsite density matrix
 
spin component  1
 
  0.8190
 
spin component  2
 
  0.8190
 
 occupancies and eigenvectors
 
  o =  0.8190  v =  1.0000  0.0000      0.0000  0.0000
  o =  0.8190  v =  0.0000  1.0000      0.0000  0.0000
atom =  27  type =  4  l = 0
 
 onsite density matrix
 
spin component  1
 
  0.8190
 
spin component  2
 
  0.8190
 
 occupancies and eigenvectors
 
  o =  0.8190  v =  1.0000  0.0000      0.0000  0.0000
  o =  0.8190  v =  0.0000  1.0000      0.0000  0.0000
atom =  28  type =  4  l = 0
 
 onsite density matrix
 
spin component  1
 
  0.8190
 
spin component  2
 
  0.8190
 
 occupancies and eigenvectors
 
  o =  0.8190  v =  1.0000  0.0000      0.0000  0.0000
  o =  0.8190  v =  0.0000  1.0000      0.0000  0.0000
atom =  29  type =  4  l = 0
 
 onsite density matrix
 
spin component  1
 
  0.8190
 
spin component  2
 
  0.8190
 
 occupancies and eigenvectors
 
  o =  0.8190  v =  1.0000  0.0000      0.0000  0.0000
  o =  0.8190  v =  0.0000  1.0000      0.0000  0.0000
atom =  30  type =  4  l = 0
 
 onsite density matrix
 
spin component  1
 
  0.8190
 
spin component  2
 
  0.8190
 
 occupancies and eigenvectors
 
  o =  0.8190  v =  1.0000  0.0000      0.0000  0.0000
  o =  0.8190  v =  0.0000  1.0000      0.0000  0.0000
     EDDAV:  cpu time    1.6430: real time    1.6500
 BZINTS: Fermi energy: 31.395184;222.000000 electrons
         Band energy:3295.236458;  BLOECHL correction: -0.064496
       DOS:  cpu time    0.0045: real time    0.0072
    --------------------------------------------
      LOOP:  cpu time    1.7683: real time    1.7820

 eigenvalue-minimisations  :  2456
 total energy-change (2. order) : 0.3559143E+04  (-0.7723744E+04)
 number of electron     222.0000000 magnetization      22.0000000
 augmentation part      222.0000000 magnetization      22.0000000

 Free energy of the ion-electron system (eV)
  ---------------------------------------------------
  alpha Z        PSCENC =       970.30864135
  Ewald energy   TEWEN  =    -14913.00861080
  -Hartree energ DENC   =     -3279.06379276
  -exchange      EXHF   =         0.00000000
  -V(xc)+E(xc)   XCENC  =       710.39753477
  PAW double counting   =     13644.53670636   -13669.90867429
  entropy T*S    EENTRO =         0.00000000
  eigenvalues    EBANDS =      3295.23645797
  atomic energy  EATOM  =     16800.64461370
  Solvation  Ediel_sol  =         0.00000000
  ---------------------------------------------------
  free energy    TOTEN  =      3559.14287630 eV

  energy without entropy =     3559.14287630  energy(sigma->0) =     3559.14287630


--------------------------------------------------------------------------------------------------------




--------------------------------------- Iteration      1(   2)  ---------------------------------------


     EDDAV:  cpu time    1.7002: real time    1.7082
 BZINTS: Fermi energy: 16.327503;222.000000 electrons
         Band energy: 977.981393;  BLOECHL correction: -0.030834
       DOS:  cpu time    0.0036: real time    0.0036
    --------------------------------------------
      LOOP:  cpu time    1.7039: real time    1.7118

 eigenvalue-minimisations  :  2552
 total energy-change (2. order) :-0.2317255E+04  (-0.2086297E+04)
 number of electron     222.0000000 magnetization      22.0000000
 augmentation part      222.0000000 magnetization      22.0000000

 Free energy of the ion-electron system (eV)
  ---------------------------------------------------
  alpha Z        PSCENC =       970.30864135
  Ewald energy   TEWEN  =    -14913.00861080
  -Hartree energ DENC   =     -3279.06379276
  -exchange      EXHF   =         0.00000000
  -V(xc)+E(xc)   XCENC  =       710.39753477
  PAW double counting   =     13644.53670636   -13669.90867429
  entropy T*S    EENTRO =         0.00000000
  eigenvalues    EBANDS =       977.98139296
  atomic energy  EATOM  =     16800.64461370
  Solvation  Ediel_sol  =         0.00000000
  ---------------------------------------------------
  free energy    TOTEN  =      1241.88781130 eV

  energy without entropy =     1241.88781130  energy(sigma->0) =     1241.88781130


--------------------------------------------------------------------------------------------------------




--------------------------------------- Iteration      1(   3)  ---------------------------------------


     EDDAV:  cpu time    1.7493: real time    1.7566
 BZINTS: Fermi energy: 11.994960;222.000000 electrons
         Band energy:   7.349060;  BLOECHL correction: -0.026014
       DOS:  cpu time    0.0037: real time    0.0037
    --------------------------------------------
      LOOP:  cpu time    1.7530: real time    1.7603

 eigenvalue-minimisations  :  2656
 total energy-change (2. order) :-0.9706323E+03  (-0.8739527E+03)
 number of electron     222.0000000 magnetization      22.0000000
 augmentation part      222.0000000 magnetization      22.0000000

 Free energy of the ion-electron system (eV)
  ---------------------------------------------------
  alpha Z        PSCENC =       970.30864135
  Ewald energy   TEWEN  =    -14913.00861080
  -Hartree energ DENC   =     -3279.06379276
  -exchange      EXHF   =         0.00000000
  -V(xc)+E(xc)   XCENC  =       710.39753477
  PAW double counting   =     13644.53670636   -13669.90867429
  entropy T*S    EENTRO =         0.00000000
  eigenvalues    EBANDS =         7.34905976
  atomic energy  EATOM  =     16800.64461370
  Solvation  Ediel_sol  =         0.00000000
  ---------------------------------------------------
  free energy    TOTEN  =       271.25547809 eV

  energy without entropy =      271.25547809  energy(sigma->0) =      271.25547809


--------------------------------------------------------------------------------------------------------




--------------------------------------- Iteration      1(   4)  ---------------------------------------


     EDDAV:  cpu time    2.2997: real time    2.3080
 BZINTS: Fermi energy: 11.266249;222.000000 electrons
         Band energy:-423.948319;  BLOECHL correction: -0.008896
       DOS:  cpu time    0.0037: real time    0.0037
    --------------------------------------------
      LOOP:  cpu time    2.3034: real time    2.3117

 eigenvalue-minimisations  :  3728
 total energy-change (2. order) :-0.4312974E+03  (-0.4061815E+03)
 number of electron     222.0000000 magnetization      22.0000000
 augmentation part      222.0000000 magnetization      22.0000000

 Free energy of the ion-electron system (eV)
  ---------------------------------------------------
  alpha Z        PSCENC =       970.30864135
  Ewald energy   TEWEN  =    -14913.00861080
  -Hartree energ DENC   =     -3279.06379276
  -exchange      EXHF   =         0.00000000
  -V(xc)+E(xc)   XCENC  =       710.39753477
  PAW double counting   =     13644.53670636   -13669.90867429
  entropy T*S    EENTRO =         0.00000000
  eigenvalues    EBANDS =      -423.94831869
  atomic energy  EATOM  =     16800.64461370
  Solvation  Ediel_sol  =         0.00000000
  ---------------------------------------------------
  free energy    TOTEN  =      -160.04190035 eV

  energy without entropy =     -160.04190035  energy(sigma->0) =     -160.04190035


--------------------------------------------------------------------------------------------------------




--------------------------------------- Iteration      1(   5)  ---------------------------------------


     EDDAV:  cpu time    2.5717: real time    2.5796
 BZINTS: Fermi energy: 10.880507;222.000000 electrons
         Band energy:-519.031666;  BLOECHL correction: -0.021761
       DOS:  cpu time    0.0037: real time    0.0037
    CHARGE:  cpu time    0.1084: real time    0.1089
    MIXING:  cpu time    0.0043: real time    0.0045
    --------------------------------------------
      LOOP:  cpu time    2.6882: real time    2.6967

 eigenvalue-minimisations  :  4176
 total energy-change (2. order) :-0.9508335E+02  (-0.9155273E+02)
 number of electron     222.0000021 magnetization      20.6223681
 augmentation part       25.9718356 magnetization      14.8767981

 Broyden mixing:
  rms(total) = 0.71539E+01    rms(broyden)= 0.71535E+01
  rms(prec ) = 0.78536E+01
  weight for this iteration     100.00

 Free energy of the ion-electron system (eV)
  ---------------------------------------------------
  alpha Z        PSCENC =       970.30864135
  Ewald energy   TEWEN  =    -14913.00861080
  -Hartree energ DENC   =     -3279.06379276
  -exchange      EXHF   =         0.00000000
  -V(xc)+E(xc)   XCENC  =       710.39753477
  PAW double counting   =     13644.53670636   -13669.90867429
  entropy T*S    EENTRO =         0.00000000
  eigenvalues    EBANDS =      -519.03166591
  atomic energy  EATOM  =     16800.64461370
  Solvation  Ediel_sol  =         0.00000000
  ---------------------------------------------------
  free energy    TOTEN  =      -255.12524758 eV

  energy without entropy =     -255.12524758  energy(sigma->0) =     -255.12524758


--------------------------------------------------------------------------------------------------------




--------------------------------------- Iteration      1(   6)  ---------------------------------------


    POTLOK:  cpu time    0.1019: real time    0.1089
    SETDIJ:  cpu time    0.0153: real time    0.0154
atom =   1  type =  1  l = 0
 
 onsite density matrix
 
spin component  1
 
  1.0560
 
spin component  2
 
  1.0560
 
 occupancies and eigenvectors
 
  o =  1.0560  v =  1.0000  0.0000      0.0000  0.0000
  o =  1.0560  v =  0.0000  1.0000      0.0000  0.0000
atom =   2  type =  1  l = 0
 
 onsite density matrix
 
spin component  1
 
  1.0562
 
spin component  2
 
  1.0559
 
 occupancies and eigenvectors
 
  o =  1.0559  v =  0.0000  1.0000      0.0000  0.0000
  o =  1.0562  v =  1.0000  0.0000      0.0000  0.0000
atom =   3  type =  1  l = 0
 
 onsite density matrix
 
spin component  1
 
  1.0560
 
spin component  2
 
  1.0560
 
 occupancies and eigenvectors
 
  o =  1.0560  v =  1.0000  0.0000      0.0000  0.0000
  o =  1.0560  v =  0.0000  1.0000      0.0000  0.0000
atom =   4  type =  1  l = 0
 
 onsite density matrix
 
spin component  1
 
  1.0569
 
spin component  2
 
  1.0566
 
 occupancies and eigenvectors
 
  o =  1.0566  v =  0.0000  1.0000      0.0000  0.0000
  o =  1.0569  v =  1.0000  0.0000      0.0000  0.0000
atom =   5  type =  1  l = 0
 
 onsite density matrix
 
spin component  1
 
  1.0559
 
spin component  2
 
  1.0561
 
 occupancies and eigenvectors
 
  o =  1.0559  v =  1.0000  0.0000      0.0000  0.0000
  o =  1.0561  v =  0.0000  1.0000      0.0000  0.0000
atom =   6  type =  1  l = 0
 
 onsite density matrix
 
spin component  1
 
  1.0569
 
spin component  2
 
  1.0566
 
 occupancies and eigenvectors
 
  o =  1.0566  v =  0.0000  1.0000      0.0000  0.0000
  o =  1.0569  v =  1.0000  0.0000      0.0000  0.0000
atom =   7  type =  2  l = 2
 
 onsite density matrix
 
spin component  1
 
  0.9378  0.0089 -0.0087  0.0089  0.0000
  0.0089  0.9378  0.0043  0.0089 -0.0075
 -0.0087  0.0043  0.3829  0.0043  0.0000
  0.0089  0.0089  0.0043  0.9378  0.0075
  0.0000 -0.0075  0.0000  0.0075  0.3829
 
spin component  2
 
  0.0357 -0.0054  0.0057 -0.0054 -0.0000
 -0.0054  0.0357 -0.0029 -0.0054  0.0049
  0.0057 -0.0029  0.4190 -0.0029  0.0000
 -0.0054 -0.0054 -0.0029  0.0357 -0.0049
 -0.0000  0.0049  0.0000 -0.0049  0.4190
 
 occupancies and eigenvectors
 
  o =  0.0250  v =  0.0000  0.0000  0.0000  0.0000  0.0000  0.5774  0.5774  0.0000  0.5774 -0.0000      0.0000  0.0000  0.0000  0.0000  0.0000  0.0000  0.0000  0.0000  0.0000  0.0000
  o =  0.0409  v =  0.0000  0.0000  0.0000  0.0000  0.0000 -0.2844  0.8049  0.0064 -0.5205 -0.0173      0.0000  0.0000  0.0000  0.0000  0.0000  0.0000  0.0000  0.0000  0.0000  0.0000
  o =  0.0409  v =  0.0000  0.0000  0.0000  0.0000  0.0000 -0.7652  0.1363  0.0173  0.6289  0.0064      0.0000  0.0000  0.0000  0.0000  0.0000  0.0000  0.0000  0.0000  0.0000  0.0000
  o =  0.3827  v =  0.0159 -0.0084  0.9993 -0.0075 -0.0322  0.0000  0.0000  0.0000  0.0000  0.0000      0.0000  0.0000  0.0000  0.0000  0.0000  0.0000  0.0000  0.0000  0.0000  0.0000
  o =  0.3827  v =  0.0005  0.0135  0.0322 -0.0140  0.9993  0.0000  0.0000  0.0000  0.0000  0.0000      0.0000  0.0000  0.0000  0.0000  0.0000  0.0000  0.0000  0.0000  0.0000  0.0000
  o =  0.4191  v =  0.0000  0.0000  0.0000  0.0000  0.0000  0.0151 -0.0076  0.9998 -0.0076 -0.0000      0.0000  0.0000  0.0000  0.0000  0.0000  0.0000  0.0000  0.0000  0.0000  0.0000
  o =  0.4191  v =  0.0000  0.0000  0.0000  0.0000  0.0000  0.0000  0.0131  0.0000 -0.0131  0.9998      0.0000  0.0000  0.0000  0.0000  0.0000  0.0000  0.0000  0.0000  0.0000  0.0000
  o =  0.9291  v =  0.3893  0.4268 -0.0093 -0.8161 -0.0171  0.0000  0.0000  0.0000  0.0000  0.0000      0.0000  0.0000  0.0000  0.0000  0.0000  0.0000  0.0000  0.0000  0.0000  0.0000
  o =  0.9291  v = -0.7175  0.6959  0.0171  0.0216 -0.0093  0.0000  0.0000  0.0000  0.0000  0.0000      0.0000  0.0000  0.0000  0.0000  0.0000  0.0000  0.0000  0.0000  0.0000  0.0000
  o =  0.9555  v = -0.5774 -0.5774  0.0000 -0.5774  0.0000  0.0000  0.0000  0.0000  0.0000  0.0000      0.0000  0.0000  0.0000  0.0000  0.0000  0.0000  0.0000  0.0000  0.0000  0.0000
atom =   8  type =  2  l = 2
 
 onsite density matrix
 
spin component  1
 
  0.9338 -0.0079  0.0139 -0.0079  0.0000
 -0.0079  0.9338 -0.0069 -0.0079  0.0120
  0.0139 -0.0069  0.3560 -0.0069 -0.0000
 -0.0079 -0.0079 -0.0069  0.9338 -0.0120
  0.0000  0.0120 -0.0000 -0.0120  0.3560
 
spin component  2
 
  0.0460  0.0047 -0.0085  0.0047 -0.0000
  0.0047  0.0460  0.0043  0.0047 -0.0074
 -0.0085  0.0043  0.4470  0.0043 -0.0000
  0.0047  0.0047  0.0043  0.0460  0.0074
 -0.0000 -0.0074 -0.0000  0.0074  0.4470
 
 occupancies and eigenvectors
 
  o =  0.0410  v =  0.0000  0.0000  0.0000  0.0000  0.0000 -0.8160  0.4254 -0.0257  0.3906  0.0006      0.0000  0.0000  0.0000  0.0000  0.0000  0.0000  0.0000  0.0000  0.0000  0.0000
  o =  0.0410  v =  0.0000  0.0000  0.0000  0.0000  0.0000  0.0201  0.6966  0.0006 -0.7167  0.0257      0.0000  0.0000  0.0000  0.0000  0.0000  0.0000  0.0000  0.0000  0.0000  0.0000
  o =  0.0554  v =  0.0000  0.0000  0.0000  0.0000  0.0000 -0.5774 -0.5774  0.0000 -0.5774  0.0000      0.0000  0.0000  0.0000  0.0000  0.0000  0.0000  0.0000  0.0000  0.0000  0.0000
  o =  0.3555  v =  0.0067  0.0162 -0.2845 -0.0230 -0.9582  0.0000  0.0000  0.0000  0.0000  0.0000      0.0000  0.0000  0.0000  0.0000  0.0000  0.0000  0.0000  0.0000  0.0000  0.0000
  o =  0.3555  v = -0.0226  0.0171  0.9582  0.0055 -0.2845  0.0000  0.0000  0.0000  0.0000  0.0000      0.0000  0.0000  0.0000  0.0000  0.0000  0.0000  0.0000  0.0000  0.0000  0.0000
  o =  0.4472  v =  0.0000  0.0000  0.0000  0.0000  0.0000  0.0210 -0.0105 -0.9997 -0.0105 -0.0000      0.0000  0.0000  0.0000  0.0000  0.0000  0.0000  0.0000  0.0000  0.0000  0.0000
  o =  0.4472  v =  0.0000  0.0000  0.0000  0.0000  0.0000  0.0000 -0.0182 -0.0000  0.0182  0.9997      0.0000  0.0000  0.0000  0.0000  0.0000  0.0000  0.0000  0.0000  0.0000  0.0000
  o =  0.9181  v =  0.5774  0.5774 -0.0000  0.5774 -0.0000  0.0000  0.0000  0.0000  0.0000  0.0000      0.0000  0.0000  0.0000  0.0000  0.0000  0.0000  0.0000  0.0000  0.0000  0.0000
  o =  0.9421  v = -0.0362 -0.6880 -0.0013  0.7242 -0.0289  0.0000  0.0000  0.0000  0.0000  0.0000      0.0000  0.0000  0.0000  0.0000  0.0000  0.0000  0.0000  0.0000  0.0000  0.0000
[...]
  0.000   0.000   0.000  -0.001   0.000   0.000  -0.001   0.000  -0.000  -0.000   0.001  -0.000   0.000   0.000   0.000  -0.000
 -0.000  -0.000  -0.000  -0.000   0.000  -0.000  -0.000   0.000   0.000   0.000   0.000  -0.000  -0.001  -0.000  -0.000   0.000
  0.000   0.000  -0.000   0.000   0.000   0.000   0.000  -0.000   0.000   0.000   0.000  -0.000  -0.000   0.000  -0.000   0.000
  0.000   0.000   0.000   0.000  -0.000   0.000   0.000  -0.001   0.000  -0.000  -0.001  -0.000   0.001   0.000   0.000   0.000
  0.000   0.000   0.000   0.000   0.000  -0.001   0.000   0.000   0.000  -0.000  -0.001  -0.001  -0.002  -0.000   0.000   0.000
 -0.000   0.005  -0.000  -0.000  -0.000   0.001   0.001   0.001   0.001   0.001   0.000   0.001   0.000  -0.001  -0.001  -0.000
  0.000   0.000   0.000  -0.000   0.000  -0.001   0.000   0.000  -0.000   0.001  -0.001  -0.000  -0.001   0.000  -0.000   0.000
 -0.000  -0.000  -0.000  -0.000  -0.000  -0.000   0.001  -0.000   0.001  -0.000  -0.002  -0.000   0.000  -0.000  -0.000   0.001
  0.000   0.000   0.000  -0.000   0.000   0.000   0.000  -0.001  -0.000  -0.000  -0.001   0.001   0.001   0.000   0.000   0.000
  0.000  -0.000   0.000   0.000  -0.000  -0.000  -0.000   0.000   0.000  -0.001   0.000   0.001  -0.000   0.000   0.000  -0.000
 -0.000  -0.000  -0.000  -0.000  -0.000  -0.000  -0.000   0.001  -0.000   0.001   0.001   0.000  -0.002   0.000  -0.000  -0.000


------------------------ aborting loop because EDIFF is reached ----------------------------------------


 


 total charge     
 
# of ion       s       p       d       f       tot
--------------------------------------------------
    1        1.999   5.697   0.485   0.189   8.371
    2        1.999   5.699   0.489   0.190   8.378
    3        1.999   5.697   0.485   0.189   8.371
    4        2.002   5.694   0.506   0.194   8.396
    5        1.998   5.694   0.479   0.184   8.356
    6        2.002   5.694   0.506   0.194   8.397
    7        0.308   0.459   4.882   0.000   5.649
    8        0.346   0.547   4.851   0.000   5.744
    9        0.308   0.459   4.882   0.000   5.649
   10        0.346   0.547   4.850   0.000   5.743
   11        0.394   0.568   8.334   0.000   9.296
   12        0.394   0.568   8.334   0.000   9.296
   13        1.561   3.498   0.000   0.000   5.059
   14        1.563   3.486   0.000   0.000   5.050
   15        1.567   3.472   0.000   0.000   5.038
   16        1.563   3.486   0.000   0.000   5.050
   17        1.561   3.498   0.000   0.000   5.059
   18        1.556   3.514   0.000   0.000   5.070
   19        1.561   3.444   0.000   0.000   5.006
   20        1.562   3.451   0.000   0.000   5.013
   21        1.565   3.437   0.000   0.000   5.002
   22        1.562   3.451   0.000   0.000   5.013
   23        1.561   3.444   0.000   0.000   5.006
   24        1.556   3.457   0.000   0.000   5.012
   25        1.562   3.420   0.000   0.000   4.982
   26        1.562   3.440   0.000   0.000   5.002
   27        1.565   3.435   0.000   0.000   4.999
   28        1.562   3.440   0.000   0.000   5.002
   29        1.562   3.420   0.000   0.000   4.982
   30        1.555   3.436   0.000   0.000   4.992
--------------------------------------------------
tot         42.203  99.552  39.086   1.141 181.982

 


 magnetization (x)
 
# of ion       s       p       d       f       tot
--------------------------------------------------
    1        0.001   0.001   0.012   0.006   0.020
    2        0.001   0.001   0.013   0.007   0.022
    3        0.001   0.001   0.012   0.006   0.020
    4        0.000   0.000   0.005   0.003   0.008
    5        0.000   0.000   0.003   0.001   0.004
    6        0.000   0.000   0.005   0.003   0.008
    7        0.021   0.019   3.775   0.000   3.814
    8        0.024   0.031   3.349   0.000   3.404
    9        0.021   0.019   3.775   0.000   3.814
   10        0.024   0.031   3.349   0.000   3.404
   11        0.012   0.008   1.698   0.000   1.718
   12        0.012   0.008   1.698   0.000   1.718
   13        0.005  -0.016   0.000   0.000  -0.011
   14        0.005  -0.025   0.000   0.000  -0.020
   15        0.007  -0.078   0.000   0.000  -0.071
   16        0.005  -0.025   0.000   0.000  -0.020
   17        0.005  -0.016   0.000   0.000  -0.011
   18        0.008   0.044   0.000   0.000   0.052
   19        0.005  -0.028   0.000   0.000  -0.023
   20        0.003  -0.027   0.000   0.000  -0.024
   21        0.004  -0.075   0.000   0.000  -0.071
   22        0.003  -0.027   0.000   0.000  -0.024
   23        0.005  -0.028   0.000   0.000  -0.023
   24        0.007   0.047   0.000   0.000   0.054
   25        0.005  -0.035   0.000   0.000  -0.030
   26        0.003  -0.024   0.000   0.000  -0.021
   27        0.003  -0.061   0.000   0.000  -0.058
   28        0.003  -0.024   0.000   0.000  -0.021
   29        0.005  -0.035   0.000   0.000  -0.030
   30        0.006   0.050   0.000   0.000   0.056
--------------------------------------------------
tot          0.205  -0.263  17.692   0.026  17.660

 
    CHARGE:  cpu time    0.1058: real time    0.1061
    FORLOC:  cpu time    0.0130: real time    0.0131
    FORNL :  cpu time    0.5813: real time    0.5831
    STRESS:  cpu time    1.7522: real time    1.7573
    FORCOR:  cpu time    0.1113: real time    0.1117
    FORHAR:  cpu time    0.0231: real time    0.0232
    MIXING:  cpu time    0.0069: real time    0.0069
    OFIELD:  cpu time    0.0001: real time    0.0003

  FORCE on cell =-STRESS in cart. coord.  units (eV):
  Direction    XX          YY          ZZ          XY          YZ          ZX
  --------------------------------------------------------------------------------------
  Alpha Z   970.30864   970.30864   970.30864
  Ewald   -4971.02097 -4971.02096 -4971.02096   -66.02081   -66.02079   -66.02081
  Hartree  1125.65270  1125.65270  1125.65270   -73.54761   -73.54761   -73.54761
  E(xc)   -1025.72914 -1025.72915 -1025.72915     0.04767     0.04769     0.04767
  Local    -681.14415  -681.14478  -681.14478   139.97065   139.97124   139.97065
  n-local   400.44238   401.96292   404.42147    -2.35179     0.73100    -0.44613
  augment   343.99740   343.99781   343.99781    -0.03038    -0.03079    -0.03038
  Kinetic  3851.59350  3839.34787  3815.88583   -10.42865     8.02858     3.27543
  Fock        0.00000     0.00000     0.00000     0.00000     0.00000     0.00000
  -------------------------------------------------------------------------------------
  Total      -0.05101    -0.05101    -0.05101     0.02244     0.02244     0.02244
  in kB      -0.22859    -0.22859    -0.22859     0.10058     0.10058     0.10058
  external pressure =       -0.23 kB  Pullay stress =        0.00 kB


 VOLUME and BASIS-vectors are now :
 -----------------------------------------------------------------------------
  energy-cutoff  :      520.00
  volume of cell :      357.53
      direct lattice vectors                 reciprocal lattice vectors
     3.903078136  0.000000000 -3.903078136     0.085402680  0.085402680 -0.170805360
    -3.903078136  3.903078136  0.000000000    -0.085402680  0.170805360 -0.085402680
     7.823038939  7.823038939  7.823038939     0.042609188  0.042609188  0.042609188

  length of vectors
     5.519786035  5.519786035 13.549900912     0.209192989  0.209192989  0.073801278


 FORCES acting on ions
    electron-ion (+dipol)            ewald-force                    non-local-force                 convergence-correction
 -----------------------------------------------------------------------------------------------
   0.916E+02 0.916E+02 0.916E+02   -.909E+02 -.909E+02 -.909E+02   -.632E+00 -.632E+00 -.632E+00   -.153E-01 -.153E-01 -.153E-01
   -.125E-03 -.560E-03 -.560E-03   -.166E-03 -.246E-03 -.246E-03   0.244E-18 -.542E-19 0.271E-19   0.148E-05 0.134E-05 0.134E-05
   -.916E+02 -.916E+02 -.916E+02   0.909E+02 0.909E+02 0.909E+02   0.632E+00 0.632E+00 0.632E+00   0.153E-01 0.153E-01 0.153E-01
   -.132E+03 -.132E+03 -.132E+03   0.130E+03 0.130E+03 0.130E+03   0.130E+01 0.130E+01 0.130E+01   0.172E-01 0.172E-01 0.172E-01
   -.212E-03 -.609E-03 -.609E-03   -.825E-04 -.204E-03 -.204E-03   -.813E-19 0.271E-19 -.542E-19   0.151E-05 0.134E-05 0.134E-05
   0.132E+03 0.132E+03 0.132E+03   -.130E+03 -.130E+03 -.130E+03   -.130E+01 -.130E+01 -.130E+01   -.172E-01 -.172E-01 -.172E-01
   -.107E+02 -.107E+02 -.107E+02   0.107E+02 0.107E+02 0.107E+02   -.237E-01 -.237E-01 -.237E-01   0.191E-02 0.191E-02 0.191E-02
   -.497E+02 -.497E+02 -.497E+02   0.495E+02 0.495E+02 0.495E+02   0.214E+00 0.214E+00 0.214E+00   0.859E-02 0.859E-02 0.859E-02
   0.107E+02 0.107E+02 0.107E+02   -.107E+02 -.107E+02 -.107E+02   0.237E-01 0.237E-01 0.237E-01   -.191E-02 -.191E-02 -.191E-02
   0.497E+02 0.497E+02 0.497E+02   -.495E+02 -.495E+02 -.495E+02   -.214E+00 -.214E+00 -.214E+00   -.859E-02 -.859E-02 -.859E-02
   0.581E+02 0.581E+02 0.581E+02   -.566E+02 -.566E+02 -.566E+02   -.145E+01 -.145E+01 -.145E+01   -.358E-02 -.358E-02 -.358E-02
   -.581E+02 -.581E+02 -.581E+02   0.566E+02 0.566E+02 0.566E+02   0.145E+01 0.145E+01 0.145E+01   0.358E-02 0.358E-02 0.358E-02
   -.387E+02 -.387E+02 -.805E+02   0.381E+02 0.381E+02 0.759E+02   0.519E+00 0.519E+00 0.461E+01   0.102E-01 0.102E-01 0.348E-01
   -.207E+02 -.207E+02 -.532E+02   0.201E+02 0.201E+02 0.551E+02   0.663E+00 0.663E+00 -.185E+01   0.733E-02 0.733E-02 0.147E-01
   -.163E-03 -.649E-03 -.497E-03   -.131E-03 -.589E-04 -.310E-03   -.407E-19 -.136E-19 0.339E-19   0.911E-06 0.961E-06 0.953E-06
   0.207E+02 0.207E+02 0.532E+02   -.201E+02 -.201E+02 -.551E+02   -.663E+00 -.663E+00 0.185E+01   -.733E-02 -.734E-02 -.147E-01
   0.387E+02 0.387E+02 0.805E+02   -.381E+02 -.381E+02 -.759E+02   -.519E+00 -.519E+00 -.461E+01   -.102E-01 -.102E-01 -.348E-01
   -.170E-03 -.697E-03 -.444E-03   -.129E-03 -.103E-04 -.345E-03   -.404E-19 0.138E-19 0.341E-19   0.911E-06 0.969E-06 0.887E-06
   -.387E+02 -.805E+02 -.387E+02   0.381E+02 0.759E+02 0.381E+02   0.519E+00 0.461E+01 0.519E+00   0.102E-01 0.348E-01 0.102E-01
   -.207E+02 -.532E+02 -.207E+02   0.201E+02 0.551E+02 0.201E+02   0.663E+00 -.185E+01 0.663E+00   0.733E-02 0.147E-01 0.733E-02
   -.163E-03 -.497E-03 -.649E-03   -.131E-03 -.310E-03 -.589E-04   0.203E-19 -.136E-19 0.136E-19   0.911E-06 0.953E-06 0.961E-06
   0.207E+02 0.532E+02 0.207E+02   -.201E+02 -.551E+02 -.201E+02   -.663E+00 0.185E+01 -.663E+00   -.733E-02 -.147E-01 -.734E-02
   0.387E+02 0.805E+02 0.387E+02   -.381E+02 -.759E+02 -.381E+02   -.519E+00 -.461E+01 -.519E+00   -.102E-01 -.348E-01 -.102E-01
   -.170E-03 -.444E-03 -.697E-03   -.129E-03 -.345E-03 -.103E-04   -.424E-19 -.491E-19 0.847E-20   0.911E-06 0.887E-06 0.969E-06
   -.805E+02 -.387E+02 -.387E+02   0.759E+02 0.381E+02 0.381E+02   0.461E+01 0.519E+00 0.519E+00   0.348E-01 0.102E-01 0.102E-01
   -.532E+02 -.207E+02 -.207E+02   0.551E+02 0.201E+02 0.201E+02   -.185E+01 0.663E+00 0.663E+00   0.147E-01 0.733E-02 0.733E-02
   -.147E-03 -.668E-03 -.668E-03   -.108E-03 -.823E-04 -.823E-04   -.491E-19 -.220E-19 0.203E-19   0.976E-06 0.899E-06 0.899E-06
   0.532E+02 0.207E+02 0.207E+02   -.551E+02 -.201E+02 -.201E+02   0.185E+01 -.663E+00 -.663E+00   -.147E-01 -.733E-02 -.733E-02
   0.805E+02 0.387E+02 0.387E+02   -.759E+02 -.381E+02 -.381E+02   -.461E+01 -.519E+00 -.519E+00   -.348E-01 -.102E-01 -.102E-01
   -.183E-03 -.693E-03 -.693E-03   -.656E-04 -.739E-04 -.739E-04   0.500E-19 -.424E-20 0.296E-19   0.982E-06 0.885E-06 0.885E-06
 -----------------------------------------------------------------------------------------------
   -.373E-02 -.369E-02 -.369E-02   0.213E-13 -.137E-13 0.205E-12   -.888E-15 0.266E-14 0.555E-15   0.588E-06 0.688E-06 0.688E-06
 
 
 POSITION                                       TOTAL-FORCE (eV/Angst)
 -----------------------------------------------------------------------------------
      7.89338      7.89338      3.99030        -0.019928     -0.019928     -0.019928
      3.91433      7.81741      3.91433         0.000000      0.000000      0.000000
      3.83836      3.83836      3.83836         0.019928      0.019928      0.019928
      3.76101      3.76101     -0.14207        -0.009162     -0.009162     -0.009162
      0.00281      3.90589      0.00281         0.000000      0.000000      0.000000
      0.14770      0.14770      0.14770         0.009162      0.009162      0.009162
      5.86579      5.86579      1.96271        -0.003344     -0.003344     -0.003344
      1.96445      5.86753      1.96445        -0.034811     -0.034811     -0.034811
      5.86595      5.86595      5.86595         0.003344      0.003344      0.003344
      5.86421      9.76729      5.86421         0.034811      0.034811      0.034811
      1.93963      1.93963     -1.96344         0.003368      0.003368      0.003368
      1.96907      1.96907      1.96907        -0.003368     -0.003368     -0.003368
      1.97310      5.87618      0.05427        -0.014075     -0.014075      0.011764
      1.98509      5.88817      3.89350         0.020023      0.020023      0.017033
      5.86587      5.86587      3.91433         0.000000      0.000000      0.000000
      5.84357      9.74665      3.93517        -0.020023     -0.020023     -0.017033
      5.85556      9.75864      7.77440         0.014075      0.014075     -0.011764
      1.95435      1.95435      0.00281         0.000000      0.000000      0.000000
      1.97310      3.95735      1.97310        -0.014075      0.011764     -0.014075
      1.98509      7.79658      1.98509         0.020023      0.017033      0.020023
      5.86587      7.81741      1.96279         0.000000      0.000000      0.000000
      5.84357      7.83824      5.84357        -0.020023     -0.017033     -0.020023
      5.85556     11.67748      5.85556         0.014075     -0.011764      0.014075
      1.95435      3.90589     -1.94872         0.000000      0.000000      0.000000
      0.05427      5.87618      1.97310         0.011764     -0.014075     -0.014075
      3.89350      5.88817      1.98509         0.017033      0.020023      0.020023
      7.81741      5.86587      1.96279         0.000000      0.000000      0.000000
      3.93517      9.74665      5.84357        -0.017033     -0.020023     -0.020023
      7.77440      9.75864      5.85556        -0.011764      0.014075      0.014075
      3.90589      1.95435     -1.94872         0.000000      0.000000      0.000000
 -----------------------------------------------------------------------------------
    total drift:                               -0.003734     -0.003688     -0.003688


--------------------------------------------------------------------------------------------------------



  FREE ENERGIE OF THE ION-ELECTRON SYSTEM (eV)
  ---------------------------------------------------
  free  energy   TOTEN  =      -226.57502913 eV

  energy  without entropy=     -226.57502913  energy(sigma->0) =     -226.57502913
 


--------------------------------------------------------------------------------------------------------


    POTLOK:  cpu time    0.1154: real time    0.1160


--------------------------------------------------------------------------------------------------------


     LOOP+:  cpu time   47.2703: real time   47.4705
    4ORBIT:  cpu time    0.0000: real time    0.0000
 


 total charge     
 
# of ion       s       p       d       f       tot
--------------------------------------------------
    1        1.999   5.697   0.485   0.189   8.371
    2        1.999   5.699   0.489   0.190   8.378
    3        1.999   5.697   0.485   0.189   8.371
    4        2.002   5.694   0.506   0.194   8.396
    5        1.998   5.694   0.479   0.184   8.356
    6        2.002   5.694   0.506   0.194   8.397
    7        0.308   0.459   4.882   0.000   5.649
    8        0.346   0.547   4.851   0.000   5.744
    9        0.308   0.459   4.882   0.000   5.649
   10        0.346   0.547   4.850   0.000   5.743
   11        0.394   0.568   8.334   0.000   9.296
   12        0.394   0.568   8.334   0.000   9.296
   13        1.561   3.498   0.000   0.000   5.059
   14        1.563   3.486   0.000   0.000   5.050
   15        1.567   3.472   0.000   0.000   5.038
   16        1.563   3.486   0.000   0.000   5.050
   17        1.561   3.498   0.000   0.000   5.059
   18        1.556   3.514   0.000   0.000   5.070
   19        1.561   3.444   0.000   0.000   5.006
   20        1.562   3.451   0.000   0.000   5.013
   21        1.565   3.437   0.000   0.000   5.002
   22        1.562   3.451   0.000   0.000   5.013
   23        1.561   3.444   0.000   0.000   5.006
   24        1.556   3.457   0.000   0.000   5.012
   25        1.562   3.420   0.000   0.000   4.982
   26        1.562   3.440   0.000   0.000   5.002
   27        1.565   3.435   0.000   0.000   4.999
   28        1.562   3.440   0.000   0.000   5.002
   29        1.562   3.420   0.000   0.000   4.982
   30        1.555   3.436   0.000   0.000   4.992
--------------------------------------------------
tot         42.203  99.552  39.086   1.141 181.982

 


 magnetization (x)
 
# of ion       s       p       d       f       tot
--------------------------------------------------
    1        0.001   0.001   0.012   0.006   0.020
    2        0.001   0.001   0.013   0.007   0.022
    3        0.001   0.001   0.012   0.006   0.020
    4        0.000   0.000   0.005   0.003   0.008
    5        0.000   0.000   0.003   0.001   0.004
    6        0.000   0.000   0.005   0.003   0.008
    7        0.021   0.019   3.775   0.000   3.814
    8        0.024   0.031   3.349   0.000   3.404
    9        0.021   0.019   3.775   0.000   3.814
   10        0.024   0.031   3.349   0.000   3.404
   11        0.012   0.008   1.698   0.000   1.718
   12        0.012   0.008   1.698   0.000   1.718
   13        0.005  -0.016   0.000   0.000  -0.011
   14        0.005  -0.025   0.000   0.000  -0.020
   15        0.007  -0.078   0.000   0.000  -0.071
   16        0.005  -0.025   0.000   0.000  -0.020
   17        0.005  -0.016   0.000   0.000  -0.011
   18        0.008   0.044   0.000   0.000   0.052
   19        0.005  -0.028   0.000   0.000  -0.023
   20        0.003  -0.027   0.000   0.000  -0.024
   21        0.004  -0.075   0.000   0.000  -0.071
   22        0.003  -0.027   0.000   0.000  -0.024
   23        0.005  -0.028   0.000   0.000  -0.023
   24        0.007   0.047   0.000   0.000   0.054
   25        0.005  -0.035   0.000   0.000  -0.030
   26        0.003  -0.024   0.000   0.000  -0.021
   27        0.003  -0.061   0.000   0.000  -0.058
   28        0.003  -0.024   0.000   0.000  -0.021
   29        0.005  -0.035   0.000   0.000  -0.030
   30        0.006   0.050   0.000   0.000   0.056
--------------------------------------------------
tot          0.205  -0.263  17.692   0.026  17.660

 
 BZINTS: Fermi energy:  7.604409;222.000000 electrons
         Band energy:-383.680033;  BLOECHL correction:  0.000000

 total amount of memory used by VASP MPI-rank0    62247. kBytes
=======================================================================

   base      :      30000. kBytes
   nonlr-proj:       8312. kBytes
   fftplans  :       3626. kBytes
   grid      :      10597. kBytes
   one-center:        294. kBytes
   wavefun   :       9418. kBytes
 
  
  
 General timing and accounting informations for this job:
 ========================================================
  
                  Total CPU time used (sec):       53.821
                            User time (sec):       51.077
                          System time (sec):        2.744
                         Elapsed time (sec):       54.131
  
                   Maximum memory used (kb):      106248.
                   Average memory used (kb):           0.
  
                          Minor page faults:        43170
                          Major page faults:            0
                 Voluntary context switches:         1087
