       N       E                     dE             d eps       ncg     rms          rms(c)
DAV:   1     0.357964138716E+04    0.35796E+04   -0.78571E+04 11872   0.246E+03
DAV:   2     0.124683001522E+04   -0.23328E+04   -0.21002E+04 12328   0.637E+02
DAV:   3     0.273911330857E+03   -0.97292E+03   -0.87007E+03 12328   0.328E+02
DAV:   4    -0.158564006349E+03   -0.43248E+03   -0.40786E+03 17774   0.180E+02
DAV:   5    -0.249384328717E+03   -0.90820E+02   -0.87180E+02 20270   0.983E+01    0.754E+01
RMM:   6    -0.225175606540E+03    0.24209E+02   -0.74651E+02 18788   0.109E+02    0.104E+02
RMM:   7    -0.223353658406E+03    0.18219E+01   -0.14594E+02 19479   0.379E+01    0.408E+01
RMM:   8    -0.217759052725E+03    0.55946E+01   -0.45180E+01 15101   0.347E+01    0.180E+01
RMM:   9    -0.220118203620E+03   -0.23592E+01   -0.26082E+01 18279   0.158E+01    0.140E+01
RMM:  10    -0.220473829929E+03   -0.35563E+00   -0.62600E+00 20540   0.567E+00    0.720E+00
RMM:  11    -0.220452386717E+03    0.21443E-01   -0.24772E+00 19171   0.527E+00    0.489E+00
RMM:  12    -0.220537743754E+03   -0.85357E-01   -0.99407E-01 19660   0.313E+00    0.240E+00
RMM:  13    -0.220558377433E+03   -0.20634E-01   -0.42490E-01 19530   0.200E+00    0.227E+00
RMM:  14    -0.220581322489E+03   -0.22945E-01   -0.21346E-01 19404   0.107E+00    0.140E+00
RMM:  15    -0.220593606221E+03   -0.12284E-01   -0.10914E-01 18212   0.103E+00    0.657E-01
RMM:  16    -0.220596525177E+03   -0.29190E-02   -0.43617E-02 16259   0.501E-01    0.536E-01
RMM:  17    -0.220598907515E+03   -0.23823E-02   -0.33002E-02 16205   0.540E-01    0.218E-01
RMM:  18    -0.220600127495E+03   -0.12200E-02   -0.14403E-02 12295   0.358E-01    0.125E-01
RMM:  19    -0.220600822647E+03   -0.69515E-03   -0.88162E-03 11084   0.331E-01
   1 F= -.22060082E+03 E0= -.22060082E+03  d E =0.000000E+00  mag=    15.0007
