 vasp.5.4.4.18Apr17-6-g9f103f2a35 (build Oct 03 2018 13:58:34) complex          
  
 executed on             LinuxIFC date 2019.06.04  01:29:01
 running on   40 total cores
 distrk:  each k-point on   20 cores,    2 groups
 distr:  one band on NCORES_PER_BAND=  10 cores,    2 groups


--------------------------------------------------------------------------------------------------------


 INCAR:
 POTCAR:    PAW_PBE La 06Sep2000                  
 POTCAR:    PAW_PBE Mn 06Sep2000                  
 POTCAR:    PAW_PBE Ni 02Aug2007                  
 POTCAR:    PAW_PBE O 08Apr2002                   

 ----------------------------------------------------------------------------- 
|                                                                             |
|           W    W    AA    RRRRR   N    N  II  N    N   GGGG   !!!           |
|           W    W   A  A   R    R  NN   N  II  NN   N  G    G  !!!           |
|           W    W  A    A  R    R  N N  N  II  N N  N  G       !!!           |
|           W WW W  AAAAAA  RRRRR   N  N N  II  N  N N  G  GGG   !            |
|           WW  WW  A    A  R   R   N   NN  II  N   NN  G    G                |
|           W    W  A    A  R    R  N    N  II  N    N   GGGG   !!!           |
|                                                                             |
|      You have enabled k-point parallelism (KPAR>1).                         |
|      This developmental code was originally  written by Paul Kent at ORNL,  |
|      and carefully double checked in Vienna.                                |
|      GW as well as linear response parallelism added by Martijn Marsman     |
|      and Georg Kresse.                                                      |
|      Carefully verify results versus KPAR=1.                                |
|      Report problems to Paul Kent and Vienna.                               |
|                                                                             |
 ----------------------------------------------------------------------------- 

 POTCAR:    PAW_PBE La 06Sep2000                  
   VRHFIN =La : [core=Kr4d]                                                     
   LEXCH  = PE                                                                  
   EATOM  =   865.9763 eV,   63.6475 Ry                                         
                                                                                
   TITEL  = PAW_PBE La 06Sep2000                                                
   LULTRA =        F    use ultrasoft PP ?                                      
   IUNSCR =        1    unscreen: 0-lin 1-nonlin 2-no                           
   RPACOR =    2.300    partial core radius                                     
   POMASS =  138.900; ZVAL   =   11.000    mass and valenz                      
   RCORE  =    2.800    outmost cutoff radius                                   
   RWIGS  =    2.900; RWIGS  =    1.535    wigner-seitz radius (au A)           
   ENMAX  =  219.292; ENMIN  =  164.469 eV                                      
   RCLOC  =    1.601    cutoff for local pot                                    
   LCOR   =        T    correct aug charges                                     
   LPAW   =        T    paw PP                                                  
   EAUG   =  583.575                                                            
   DEXC   =    0.000                                                            
   RMAX   =    2.853    core radius for proj-oper                               
   RAUG   =    1.300    factor for augmentation sphere                          
   RDEP   =    2.802    radius for radial grids                                 
   RDEPT  =    2.156    core radius for aug-charge                              
                                                                                
   Atomic configuration                                                         
   14 entries                                                                   
     n  l   j            E        occ.                                          
     1  0  0.50    -38741.0879   2.0000                                         
     2  0  0.50     -6166.6801   2.0000                                         
     2  1  1.50     -5526.1593   6.0000                                         
     3  0  0.50     -1319.0200   2.0000                                         
     3  1  1.50     -1114.5963   6.0000                                         
     3  2  2.50      -821.1793  10.0000                                         
     4  0  0.50      -266.3851   2.0000                                         
     4  1  1.50      -199.9276   6.0000                                         
     4  2  2.50      -103.8239  10.0000                                         
     5  0  0.50       -38.9172   2.0000                                         
     6  0  0.50        -3.6792   2.0000                                         
     5  1  1.50       -22.3948   6.0000                                         
     5  2  2.50        -3.0911   0.9999                                         
     4  3  2.50        -4.3603   0.0001                                         
   Description                                                                  
     l       E           TYP  RCUT    TYP  RCUT                                 
     0    -38.9171645     23  2.800                                             
     0     -3.6792381     23  2.800                                             
     1    -22.3948300     23  2.500                                             
     1     27.2116520     23  2.500                                             
     2     -3.0910934     23  2.500                                             
     2      1.0119135     23  2.500                                             
     3     -4.3602911     23  2.800                                             
     3     -5.7208737     23  2.800                                             
  local pseudopotential read in
  partial core-charges read in
  partial kinetic energy density read in
  atomic valenz-charges read in
  non local Contribution for L=           0  read in
    real space projection operators read in
  non local Contribution for L=           0  read in
    real space projection operators read in
  non local Contribution for L=           1  read in
    real space projection operators read in
  non local Contribution for L=           1  read in
    real space projection operators read in
  non local Contribution for L=           2  read in
    real space projection operators read in
  non local Contribution for L=           2  read in
    real space projection operators read in
  non local Contribution for L=           3  read in
    real space projection operators read in
  non local Contribution for L=           3  read in
    real space projection operators read in
    PAW grid and wavefunctions read in
 
   number of l-projection  operators is LMAX  =           8
   number of lm-projection operators is LMMAX =          32
 
 POTCAR:    PAW_PBE Mn 06Sep2000                  
   VRHFIN =Mn: d6 s1                                                            
   LEXCH  = PE                                                                  
   EATOM  =   416.7541 eV,   30.6306 Ry                                         
                                                                                
   TITEL  = PAW_PBE Mn 06Sep2000                                                
   LULTRA =        F    use ultrasoft PP ?                                      
   IUNSCR =        1    unscreen: 0-lin 1-nonlin 2-no                           
   RPACOR =    2.000    partial core radius                                     
   POMASS =   54.938; ZVAL   =    7.000    mass and valenz                      
   RCORE  =    2.300    outmost cutoff radius                                   
   RWIGS  =    2.500; RWIGS  =    1.323    wigner-seitz radius (au A)           
   ENMAX  =  269.864; ENMIN  =  202.398 eV                                      
   RCLOC  =    1.725    cutoff for local pot                                    
   LCOR   =        T    correct aug charges                                     
   LPAW   =        T    paw PP                                                  
   EAUG   =  500.711                                                            
   DEXC   =    0.000                                                            
   RMAX   =    2.343    core radius for proj-oper                               
   RAUG   =    1.300    factor for augmentation sphere                          
   RDEP   =    2.338    radius for radial grids                                 
   RDEPT  =    1.911    core radius for aug-charge                              
                                                                                
   Atomic configuration                                                         
    9 entries                                                                   
     n  l   j            E        occ.                                          
     1  0  0.50     -6424.8288   2.0000                                         
     2  0  0.50      -739.1154   2.0000                                         
     2  1  1.50      -625.3949   6.0000                                         
     3  0  0.50       -81.6100   2.0000                                         
     3  1  1.50       -50.4667   6.0000                                         
     3  2  2.50        -3.3745   6.0000                                         
     4  0  0.50        -4.1331   1.0000                                         
     4  1  0.50        -4.0817   0.0000                                         
     4  3  2.50        -1.3606   0.0000                                         
   Description                                                                  
     l       E           TYP  RCUT    TYP  RCUT                                 
     2     -3.3744664     23  2.300                                             
     2     -4.7350490     23  2.300                                             
     0     -4.1331408     23  2.300                                             
     0      7.6656614     23  2.300                                             
     1     -2.7211652     23  2.300                                             
     1     20.4087390     23  2.300                                             
  local pseudopotential read in
  partial core-charges read in
  partial kinetic energy density read in
  atomic valenz-charges read in
  non local Contribution for L=           2  read in
    real space projection operators read in
  non local Contribution for L=           2  read in
    real space projection operators read in
  non local Contribution for L=           0  read in
    real space projection operators read in
  non local Contribution for L=           0  read in
    real space projection operators read in
  non local Contribution for L=           1  read in
    real space projection operators read in
  non local Contribution for L=           1  read in
    real space projection operators read in
    PAW grid and wavefunctions read in
 
   number of l-projection  operators is LMAX  =           6
   number of lm-projection operators is LMMAX =          18
 
 POTCAR:    PAW_PBE Ni 02Aug2007                  
   VRHFIN =Ni:                                                                  
   LEXCH  = PE                                                                  
   EATOM  =  1077.6739 eV,   79.2068 Ry                                         
                                                                                
   TITEL  = PAW_PBE Ni 02Aug2007                                                
   LULTRA =        F    use ultrasoft PP ?                                      
   IUNSCR =        1    unscreen: 0-lin 1-nonlin 2-no                           
   RPACOR =    2.000    partial core radius                                     
   POMASS =   58.690; ZVAL   =   10.000    mass and valenz                      
   RCORE  =    2.300    outmost cutoff radius                                   
   RWIGS  =    2.430; RWIGS  =    1.286    wigner-seitz radius (au A)           
   ENMAX  =  269.532; ENMIN  =  202.149 eV                                      
   RCLOC  =    1.201    cutoff for local pot                                    
   LCOR   =        T    correct aug charges                                     
   LPAW   =        T    paw PP                                                  
   EAUG   =  544.565                                                            
   DEXC   =    0.000                                                            
   RMAX   =    2.357    core radius for proj-oper                               
   RAUG   =    1.300    factor for augmentation sphere                          
   RDEP   =    2.390    radius for radial grids                                 
   RDEPT  =    1.838    core radius for aug-charge                              
                                                                                
   Atomic configuration                                                         
    9 entries                                                                   
     n  l   j            E        occ.                                          
     1  0  0.50     -8206.4253   2.0000                                         
     2  0  0.50      -976.1748   2.0000                                         
     2  1  1.50      -839.0571   6.0000                                         
     3  0  0.50      -105.9991   2.0000                                         
     3  1  1.50       -66.4603   6.0000                                         
     3  2  2.50        -4.6458   9.0000                                         
     4  0  0.50        -4.4926   1.0000                                         
     4  1  1.50        -4.0817   0.0000                                         
     4  3  2.50        -1.3606   0.0000                                         
   Description                                                                  
     l       E           TYP  RCUT    TYP  RCUT                                 
     2     -4.6457903     23  2.300                                             
     2     -6.0063729     23  2.300                                             
     0     -4.4925590     23  2.300                                             
     0      5.0102601     23  2.300                                             
     1     -2.7211652     23  2.300                                             
     1     16.5183231     23  2.300                                             
  local pseudopotential read in
  partial core-charges read in
  partial kinetic energy density read in
  atomic valenz-charges read in
  non local Contribution for L=           2  read in
    real space projection operators read in
  non local Contribution for L=           2  read in
    real space projection operators read in
  non local Contribution for L=           0  read in
    real space projection operators read in
  non local Contribution for L=           0  read in
    real space projection operators read in
  non local Contribution for L=           1  read in
    real space projection operators read in
  non local Contribution for L=           1  read in
    real space projection operators read in
    PAW grid and wavefunctions read in
 
   number of l-projection  operators is LMAX  =           6
   number of lm-projection operators is LMMAX =          18
 
 POTCAR:    PAW_PBE O 08Apr2002                   
   VRHFIN =O: s2p4                                                              
   LEXCH  = PE                                                                  
   EATOM  =   432.3788 eV,   31.7789 Ry                                         
                                                                                
   TITEL  = PAW_PBE O 08Apr2002                                                 
   LULTRA =        F    use ultrasoft PP ?                                      
   IUNSCR =        1    unscreen: 0-lin 1-nonlin 2-no                           
   RPACOR =    1.200    partial core radius                                     
   POMASS =   16.000; ZVAL   =    6.000    mass and valenz                      
   RCORE  =    1.520    outmost cutoff radius                                   
   RWIGS  =    1.550; RWIGS  =    0.820    wigner-seitz radius (au A)           
   ENMAX  =  400.000; ENMIN  =  300.000 eV                                      
   ICORE  =        2    local potential                                         
   LCOR   =        T    correct aug charges                                     
   LPAW   =        T    paw PP                                                  
   EAUG   =  605.392                                                            
   DEXC   =    0.000                                                            
   RMAX   =    1.553    core radius for proj-oper                               
   RAUG   =    1.300    factor for augmentation sphere                          
   RDEP   =    1.550    radius for radial grids                                 
   RDEPT  =    1.329    core radius for aug-charge                              
                                                                                
   Atomic configuration                                                         
    4 entries                                                                   
     n  l   j            E        occ.                                          
     1  0  0.50      -514.6923   2.0000                                         
     2  0  0.50       -23.9615   2.0000                                         
     2  1  0.50        -9.0305   4.0000                                         
     3  2  1.50        -9.5241   0.0000                                         
   Description                                                                  
     l       E           TYP  RCUT    TYP  RCUT                                 
     0    -23.9615318     23  1.200                                             
     0     -9.5240782     23  1.200                                             
     1     -9.0304911     23  1.520                                             
     1      8.1634956     23  1.520                                             
     2     -9.5240782      7  1.500                                             
  local pseudopotential read in
  partial core-charges read in
  partial kinetic energy density read in
  kinetic energy density of atom read in
  atomic valenz-charges read in
  non local Contribution for L=           0  read in
    real space projection operators read in
  non local Contribution for L=           0  read in
    real space projection operators read in
  non local Contribution for L=           1  read in
    real space projection operators read in
  non local Contribution for L=           1  read in
    real space projection operators read in
    PAW grid and wavefunctions read in
 
   number of l-projection  operators is LMAX  =           4
   number of lm-projection operators is LMMAX =           8
 
 Optimization of the real space projectors (new method)

 maximal supplied QI-value         = 13.42
 optimisation between [QCUT,QGAM] = [ 11.67, 23.35] = [ 38.16,152.62] Ry 
 Optimized for a Real-space Cutoff    1.63 Angstroem

   l    n(q)    QCUT    max X(q) W(low)/X(q) W(high)/X(q)  e(spline) 
   0     11    11.673    13.882    0.27E-04    0.79E-05    0.11E-06
   0     11    11.673    12.184    0.39E-04    0.13E-04    0.19E-06
   1     11    11.673     4.523    0.73E-05    0.76E-05    0.12E-06
   1     11    11.673     4.424    0.87E-05    0.13E-04    0.19E-06
   2     10    11.673    52.481    0.65E-04    0.36E-04    0.18E-06
   2     10    11.673    38.501    0.61E-04    0.33E-04    0.17E-06
   3     10    11.673    65.631    0.17E-03    0.14E-03    0.37E-06
   3     10    11.673    56.854    0.17E-03    0.14E-03    0.37E-06
 Optimization of the real space projectors (new method)

 maximal supplied QI-value         = 16.25
 optimisation between [QCUT,QGAM] = [ 11.54, 23.24] = [ 37.28,151.24] Ry 
 Optimized for a Real-space Cutoff    1.53 Angstroem

   l    n(q)    QCUT    max X(q) W(low)/X(q) W(high)/X(q)  e(spline) 
   2     10    11.539   110.144    0.12E-03    0.13E-03    0.25E-06
   2     10    11.539   103.200    0.12E-03    0.13E-03    0.25E-06
   0     11    11.539    68.437    0.46E-04    0.21E-04    0.32E-06
   0     11    11.539    33.971    0.37E-04    0.19E-04    0.29E-06
   1     10    11.539    17.065    0.51E-04    0.22E-04    0.13E-06
   1     10    11.539    12.540    0.41E-04    0.18E-04    0.11E-06
 Optimization of the real space projectors (new method)

 maximal supplied QI-value         = 16.25
 optimisation between [QCUT,QGAM] = [ 11.54, 23.24] = [ 37.28,151.24] Ry 
 Optimized for a Real-space Cutoff    1.45 Angstroem

   l    n(q)    QCUT    max X(q) W(low)/X(q) W(high)/X(q)  e(spline) 
   2      9    11.539    60.317    0.19E-03    0.47E-04    0.16E-06
   2      9    11.539    55.921    0.19E-03    0.48E-04    0.16E-06
   0     10    11.539    51.690    0.80E-04    0.50E-04    0.24E-06
   0     10    11.539    30.015    0.73E-04    0.45E-04    0.22E-06
   1     10    11.539    18.849    0.87E-04    0.16E-03    0.71E-07
   1     10    11.539    14.624    0.73E-04    0.13E-03    0.64E-07
 Optimization of the real space projectors (new method)

 maximal supplied QI-value         = 24.76
 optimisation between [QCUT,QGAM] = [ 11.64, 23.27] = [ 37.91,151.63] Ry 
 Optimized for a Real-space Cutoff    1.14 Angstroem

   l    n(q)    QCUT    max X(q) W(low)/X(q) W(high)/X(q)  e(spline) 
   0      8    11.635    20.381    0.10E-03    0.33E-03    0.24E-06
   0      8    11.635    15.268    0.11E-03    0.35E-03    0.26E-06
   1      7    11.635     5.964    0.24E-03    0.31E-03    0.30E-06
   1      7    11.635     5.382    0.22E-03    0.25E-03    0.26E-06
  PAW_PBE La 06Sep2000                  :
 energy of atom  1       EATOM= -865.9763
 kinetic energy error for atom=    0.0009 (will be added to EATOM!!)
  PAW_PBE Mn 06Sep2000                  :
 energy of atom  2       EATOM= -416.7541
 kinetic energy error for atom=    0.0024 (will be added to EATOM!!)
  PAW_PBE Ni 02Aug2007                  :
 energy of atom  3       EATOM=-1077.6739
 kinetic energy error for atom=    0.0030 (will be added to EATOM!!)
  PAW_PBE O 08Apr2002                   :
 energy of atom  4       EATOM= -432.3788
 kinetic energy error for atom=    0.0208 (will be added to EATOM!!)
 
 
 POSCAR: SCEL6_3_1_2_0_2_1/3                     
  positions in direct lattice
  velocities in cartesian coordinates
 exchange correlation table for  LEXCH =        8
   RHO(1)=    0.500       N(1)  =     2000
   RHO(2)=  100.500       N(2)  =     4000
 


--------------------------------------------------------------------------------------------------------


 ion  position               nearest neighbor table
   1  0.839  0.829  0.493-  28 2.68  24 2.68  15 2.70  30 2.75  20 2.75  17 2.75  17 2.75  27 2.76
                            23 2.76  13 2.80  19 2.82  29 2.82  10 3.31  12 3.33  12 3.33   9 3.35
   2  0.661  0.671  0.007-  28 2.68  24 2.68  18 2.70  26 2.75  22 2.75  16 2.75  16 2.75  29 2.76
                            19 2.76  14 2.80  23 2.82  27 2.82  12 3.31  10 3.33  10 3.33   8 3.35
   3  0.496  0.518  0.489-  28 2.63  24 2.63  17 2.65  27 2.74  23 2.74  15 2.75  15 2.75  26 2.75
                            22 2.75  12 3.23  11 3.31  10 3.32  10 3.32   9 3.41   9 3.41   7 3.41
   4  0.329  0.341  0.002-  16 2.66  22 2.70  26 2.70  27 2.72  23 2.72  14 2.75  14 2.75  30 2.76
                            20 2.76  25 2.79  21 2.79  18 2.81  10 3.28  11 3.32   7 3.35   7 3.35
   5  0.171  0.159  0.498-  17 2.66  20 2.70  30 2.70  29 2.72  19 2.72  13 2.75  13 2.75  26 2.76
                            22 2.76  25 2.79  21 2.79  15 2.81  12 3.28  11 3.32   7 3.35   7 3.35
   6  0.004  0.982  0.011-  28 2.63  24 2.63  16 2.65  29 2.74  19 2.74  18 2.75  18 2.75  30 2.75
                            20 2.75  10 3.23  11 3.31  12 3.32  12 3.32   8 3.41   8 3.41   7 3.41
   7  0.750  0.250  0.250-  26 1.89  30 1.89  20 1.89  22 1.89  13 1.92  14 1.92   5 3.35   4 3.35
                             5 3.35   4 3.35   2 3.38   1 3.38   3 3.41   6 3.41
   8  0.583  0.084  0.751-  18 1.88  19 1.88  29 1.88  25 1.94  21 1.94  13 1.96   2 3.35   5 3.38
                             5 3.38   6 3.41   6 3.41   4 3.41
   9  0.917  0.416  0.749-  15 1.88  23 1.88  27 1.88  25 1.94  21 1.94  14 1.96   1 3.35   4 3.38
                             4 3.38   3 3.41   3 3.41   5 3.41
  10  0.085  0.580  0.250-  16 1.96  28 1.96  24 1.96  22 1.97  26 1.97  15 1.99   6 3.23   4 3.28
                             1 3.31   3 3.32   3 3.32   2 3.33   2 3.33
  11  0.250  0.750  0.750-  16 1.92  17 1.92  27 2.00  29 2.00  19 2.00  23 2.00   6 3.31   3 3.31
                             4 3.32   5 3.32
  12  0.415  0.920  0.250-  17 1.96  28 1.96  24 1.96  20 1.97  30 1.97  18 1.99   3 3.23   5 3.28
                             2 3.31   6 3.32   6 3.32   1 3.33   1 3.33
  13  0.667  0.167  0.498-   7 1.92   8 1.96   5 2.75   5 2.75   1 2.80
  14  0.833  0.333  0.002-   7 1.92   9 1.96   4 2.75   4 2.75   2 2.80
  15  0.998  0.497  0.506-   9 1.88  10 1.99   1 2.70   3 2.75   3 2.75   5 2.81
  16  0.169  0.665  0.997-  11 1.92  10 1.96   6 2.65   4 2.66   2 2.75   2 2.75
  17  0.331  0.835  0.503-  11 1.92  12 1.96   3 2.65   5 2.66   1 2.75   1 2.75
  18  0.502  0.003  0.994-   8 1.88  12 1.99   2 2.70   6 2.75   6 2.75   4 2.81
  19  0.420  0.923  0.750-   8 1.88  11 2.00   5 2.72   6 2.74   2 2.76   1 2.82
  20  0.586  0.088  0.249-   7 1.89  12 1.97   5 2.70   1 2.75   6 2.75   4 2.76
  21  0.750  0.250  0.750-   8 1.94   9 1.94   4 2.79   5 2.79
  22  0.914  0.412  0.251-   7 1.89  10 1.97   4 2.70   2 2.75   3 2.75   5 2.76
  23  0.080  0.577  0.750-   9 1.88  11 2.00   4 2.72   3 2.74   1 2.76   2 2.82
  24  0.250  0.750  0.250-  10 1.96  12 1.96   3 2.63   6 2.63   1 2.68   2 2.68
  25  0.250  0.250  0.750-   8 1.94   9 1.94   4 2.79   5 2.79
  26  0.424  0.412  0.251-   7 1.89  10 1.97   4 2.70   2 2.75   3 2.75   5 2.76
  27  0.593  0.577  0.750-   9 1.88  11 2.00   4 2.72   3 2.74   1 2.76   2 2.82
  28  0.750  0.750  0.250-  10 1.96  12 1.96   3 2.63   6 2.63   1 2.68   2 2.68
  29  0.907  0.923  0.750-   8 1.88  11 2.00   5 2.72   6 2.74   2 2.76   1 2.82
  30  0.076  0.088  0.249-   7 1.89  12 1.97   5 2.70   1 2.75   6 2.75   4 2.76
 
  LATTYP: Found a base centered monoclinic cell.
 ALAT       =    16.4788443909
 B/A-ratio  =     0.3333286362
 C/A-ratio  =     0.8156474879
 COS(beta)  =    -0.7750471605
  
  Lattice vectors:
  
 A1 = (  -7.7681740746,   3.8841279259,  -0.0026755377)
 A2 = (  -3.8841279357,   7.7681740649,  -0.0026755377)
 A3 = (   7.7664049836,  -7.7664049739,  -7.7475450129)


Analysis of symmetry for initial positions (statically):
=====================================================================
 Subroutine PRICEL returns:
 Original cell was already a primitive cell.
 

 Routine SETGRP: Setting up the symmetry group for a 
 base centered monoclinic supercell.


 Subroutine GETGRP returns: Found  4 space group operations
 (whereof  2 operations were pure point group operations)
 out of a pool of  4 trial point group operations.


The static configuration has the point symmetry C_1h.
 The point group associated with its full space group is C_2h.


Analysis of symmetry for dynamics (positions and initial velocities):
=====================================================================
 Subroutine PRICEL returns:
 Original cell was already a primitive cell.
 

 Routine SETGRP: Setting up the symmetry group for a 
 base centered monoclinic supercell.


 Subroutine GETGRP returns: Found  4 space group operations
 (whereof  2 operations were pure point group operations)
 out of a pool of  4 trial point group operations.


The dynamic configuration has the point symmetry C_1h.
 The point group associated with its full space group is C_2h.


Analysis of structural, dynamic, and magnetic symmetry:
=====================================================================
 Subroutine PRICEL returns:
 Original cell was already a primitive cell.
 

 Routine SETGRP: Setting up the symmetry group for a 
 base centered monoclinic supercell.


 Subroutine GETGRP returns: Found  4 space group operations
 (whereof  2 operations were pure point group operations)
 out of a pool of  4 trial point group operations.


The magnetic configuration has the point symmetry C_1h.
 The point group associated with its full space group is C_2h.


 Subroutine INISYM returns: Found  4 space group operations
 (whereof  2 operations are pure point group operations),
 and found     1 'primitive' translations

 
 
 KPOINTS: Automatic mesh                          

Automatic generation of k-mesh.
 generate k-points for:    4    3    3
Space group operators:
 irot       det(A)        alpha          n_x          n_y          n_z        tau_x        tau_y        tau_z
    1     1.000000     0.000000     1.000000     0.000000     0.000000     0.000000     0.000000     0.000000
    2    -1.000000   180.000000     0.707107     0.707107    -0.000000     0.000000     0.000000     0.000000
    3    -1.000000     0.000000     1.000000     0.000000     0.000000     0.500000    -0.500000    -0.500000
    4     1.000000   180.000000     0.707107     0.707107    -0.000000     0.500000    -0.500000    -0.500000
 
 Subroutine IBZKPT returns following result:
 ===========================================
 
 Found     19 irreducible k-points:
 
 Following reciprocal coordinates:
            Coordinates               Weight
  0.000000  0.000000  0.000000      1.000000
  0.250000 -0.000000  0.000000      2.000000
  0.500000 -0.000000  0.000000      1.000000
  0.000000  0.333333  0.000000      2.000000
  0.250000  0.333333  0.000000      2.000000
  0.500000  0.333333  0.000000      2.000000
 -0.250000  0.333333 -0.000000      2.000000
 -0.000000  0.000000  0.333333      2.000000
  0.250000 -0.000000  0.333333      2.000000
  0.500000  0.000000  0.333333      2.000000
 -0.250000 -0.000000  0.333333      2.000000
 -0.000000  0.333333  0.333333      2.000000
  0.250000  0.333333  0.333333      2.000000
  0.500000  0.333333  0.333333      2.000000
 -0.250000  0.333333  0.333333      2.000000
  0.000000 -0.333333  0.333333      2.000000
  0.250000 -0.333333  0.333333      2.000000
  0.500000 -0.333333  0.333333      2.000000
 -0.250000 -0.333333  0.333333      2.000000
 
 Following cartesian coordinates:
            Coordinates               Weight
  0.000000  0.000000  0.000000      1.000000
  0.042913  0.021453 -0.010756      2.000000
  0.085826  0.042906 -0.021512      1.000000
 -0.028603  0.028603 -0.014322      2.000000
  0.014310  0.050056 -0.025078      2.000000
  0.057222  0.071509 -0.035834      2.000000
 -0.071516  0.007150 -0.003565      2.000000
 -0.000010  0.000010  0.043005      2.000000
  0.042903  0.021463  0.032248      2.000000
  0.085816  0.042916  0.021492      2.000000
 -0.042923 -0.021443  0.053761      2.000000
 -0.028613  0.028613  0.028683      2.000000
  0.014300  0.050066  0.017927      2.000000
  0.057213  0.071519  0.007171      2.000000
 -0.071526  0.007160  0.039439      2.000000
  0.028593 -0.028593  0.057326      2.000000
  0.071506 -0.007141  0.046570      2.000000
  0.114419  0.014312  0.035814      2.000000
 -0.014319 -0.050046  0.068082      2.000000
 
 TETIRR: Found    106 inequivalent tetrahedra from      216


--------------------------------------------------------------------------------------------------------




 Dimension of arrays:
   k-points           NKPTS =     19   k-points in BZ     NKDIM =     19   number of bands    NBANDS=    146
   number of dos      NEDOS =    301   number of ions     NIONS =     30
   non local maximal  LDIM  =      8   non local SUM 2l+1 LMDIM =     32
   total plane-waves  NPLWV = 188160
   max r-space proj   IRMAX =   9730   max aug-charges    IRDMAX=  28223
   dimension x,y,z NGX =    42 NGY =   70 NGZ =   64
   dimension x,y,z NGXF=    84 NGYF=  140 NGZF=  128
   support grid    NGXF=    84 NGYF=  140 NGZF=  128
   ions per type =               6   3   3  18
   NGX,Y,Z   is equivalent  to a cutoff of  12.71, 13.40, 12.27 a.u.
   NGXF,Y,Z  is equivalent  to a cutoff of  25.42, 26.80, 24.55 a.u.

 SYSTEM =  final                                   
 POSCAR =  SCEL6_3_1_2_0_2_1/3                     

 Startparameter for this run:
   NWRITE =      2    write-flag & timer
   PREC   = accura    normal or accurate (medium, high low for compatibility)
   ISTART =      0    job   : 0-new  1-cont  2-samecut
   ICHARG =      1    charge: 1-file 2-atom 10-const
   ISPIN  =      2    spin polarized calculation?
   LNONCOLLINEAR =      F non collinear calculations
   LSORBIT =      F    spin-orbit coupling
   INIWAV =      1    electr: 0-lowe 1-rand  2-diag
   LASPH  =      F    aspherical Exc in radial PAW
   METAGGA=      F    non-selfconsistent MetaGGA calc.

 Electronic Relaxation 1
   ENCUT  =  520.0 eV  38.22 Ry    6.18 a.u.  10.21 16.15 16.12*2*pi/ulx,y,z
   ENINI  =  520.0     initial cutoff
   ENAUG  =  605.4 eV  augmentation charge cutoff
   NELM   =    100;   NELMIN=  2; NELMDL= -5     # of ELM steps 
   EDIFF  = 0.1E-02   stopping-criterion for ELM
   LREAL  =      T    real-space projection
   NLSPLINE    = F    spline interpolate recip. space projectors
   LCOMPAT=      F    compatible to vasp.4.4
   GGA_COMPAT  = T    GGA compatible to vasp.4.4-vasp.4.6
   LMAXPAW     = -100 max onsite density
   LMAXMIX     =    6 max onsite mixed and CHGCAR
   VOSKOWN=      0    Vosko Wilk Nusair interpolation
   ROPT   =   -0.00025  -0.00025  -0.00025  -0.00025
 Ionic relaxation
   EDIFFG = 0.1E-01   stopping-criterion for IOM
   NSW    =      0    number of steps for IOM
   NBLOCK =      1;   KBLOCK =      1    inner block; outer block 
   IBRION =     -1    ionic relax: 0-MD 1-quasi-New 2-CG
   NFREE  =      0    steps in history (QN), initial steepest desc. (CG)
   ISIF   =      2    stress and relaxation
   IWAVPR =     10    prediction:  0-non 1-charg 2-wave 3-comb
   ISYM   =      2    0-nonsym 1-usesym 2-fastsym
   LCORR  =      T    Harris-Foulkes like correction to forces

   POTIM  = 0.5000    time-step for ionic-motion
   TEIN   =    0.0    initial temperature
   TEBEG  =    0.0;   TEEND  =   0.0 temperature during run
   SMASS  =  -3.00    Nose mass-parameter (am)
   estimated Nose-frequenzy (Omega)   =  0.10E-29 period in steps =****** mass=  -0.689E-27a.u.
   SCALEE = 1.0000    scale energy and forces
   NPACO  =    256;   APACO  = 16.0  distance and # of slots for P.C.
   PSTRESS=    0.0 pullay stress

  Mass of Ions in am
   POMASS = 138.90 54.94 58.69 16.00
  Ionic Valenz
   ZVAL   =  11.00  7.00 10.00  6.00
  Atomic Wigner-Seitz radii
   RWIGS  =  -1.00 -1.00 -1.00 -1.00
  virtual crystal weights 
   VCA    =   1.00  1.00  1.00  1.00
   NELECT =     225.0000    total number of electrons
   NUPDOWN=      -1.0000    fix difference up-down

 DOS related values:
   EMIN   =  10.00;   EMAX   =-10.00  energy-range for DOS
   EFERMI =   0.00
   ISMEAR =    -5;   SIGMA  =   0.05  broadening in eV -4-tet -1-fermi 0-gaus

 Electronic relaxation 2 (details)
   IALGO  =     68    algorithm
   LDIAG  =      T    sub-space diagonalisation (order eigenvalues)
   LSUBROT=      F    optimize rotation matrix (better conditioning)
   TURBO    =      0    0=normal 1=particle mesh
   IRESTART =      0    0=no restart 2=restart with 2 vectors
   NREBOOT  =      0    no. of reboots
   NMIN     =      0    reboot dimension
   EREF     =   0.00    reference energy to select bands
   IMIX   =      4    mixing-type and parameters
     AMIX     =   0.40;   BMIX     =  1.00
     AMIX_MAG =   1.60;   BMIX_MAG =  1.00
     AMIN     =   0.10
     WC   =   100.;   INIMIX=   1;  MIXPRE=   1;  MAXMIX= -45

 Intra band minimization:
   WEIMIN = 0.0000     energy-eigenvalue tresh-hold
   EBREAK =  0.17E-05  absolut break condition
   DEPER  =   0.30     relativ break condition  

   TIME   =   0.40     timestep for ELM

  volume/ion in A,a.u.               =      11.69        78.91
  Fermi-wavevector in a.u.,A,eV,Ry     =   1.411830  2.667971 27.119990  1.993263
  Thomas-Fermi vector in A             =   2.533641
 
 Write flags
   LWAVE        =      F    write WAVECAR
   LDOWNSAMPLE  =      F    k-point downsampling of WAVECAR
   LCHARG       =      T    write CHGCAR
   LVTOT        =      F    write LOCPOT, total local potential
   LVHAR        =      F    write LOCPOT, Hartree potential only
   LELF         =      F    write electronic localiz. function (ELF)
   LORBIT       =     11    0 simple, 1 ext, 2 COOP (PROOUT), +10 PAW based schemes


 Dipole corrections
   LMONO  =      F    monopole corrections only (constant potential shift)
   LDIPOL =      F    correct potential (dipole corrections)
   IDIPOL =      0    1-x, 2-y, 3-z, 4-all directions 
   EPSILON=  1.0000000 bulk dielectric constant

 LDA+U is selected, type is set to LDAUTYPE =  2
   angular momentum for each species LDAUL =     0    2    2    0
   U (eV)           for each species LDAUU =   0.0  3.9  6.2  0.0
   J (eV)           for each species LDAUJ =   0.0  0.0  0.0  0.0
 Exchange correlation treatment:
   GGA     =    --    GGA type
   LEXCH   =     8    internal setting for exchange type
   VOSKOWN=      0    Vosko Wilk Nusair interpolation
   LHFCALC =     F    Hartree Fock is set to
   LHFONE  =     F    Hartree Fock one center treatment
   AEXX    =    0.0000 exact exchange contribution

 Linear response parameters
   LEPSILON=     F    determine dielectric tensor
   LRPA    =     F    only Hartree local field effects (RPA)
   LNABLA  =     F    use nabla operator in PAW spheres
   LVEL    =     F    velocity operator in full k-point grid
   LINTERFAST=   F  fast interpolation
   KINTER  =     0    interpolate to denser k-point grid
   CSHIFT  =0.1000    complex shift for real part using Kramers Kronig
   OMEGAMAX=  -1.0    maximum frequency
   DEG_THRESHOLD= 0.2000000E-02 threshold for treating states as degnerate
   RTIME   =   -0.100 relaxation time in fs
  (WPLASMAI=    0.000 imaginary part of plasma frequency in eV, 0.658/RTIME)
   DFIELD  = 0.0000000 0.0000000 0.0000000 field for delta impulse in time
 
 Orbital magnetization related:
   ORBITALMAG=     F  switch on orbital magnetization
   LCHIMAG   =     F  perturbation theory with respect to B field
   DQ        =  0.001000  dq finite difference perturbation B field
   LLRAUG    =     F  two centre corrections for induced B field



--------------------------------------------------------------------------------------------------------


 Static calculation
 charge density and potential will be updated during run
 spin polarized calculation
 RMM-DIIS sequential band-by-band and
  variant of blocked Davidson during initial phase
 perform sub-space diagonalisation
    before iterative eigenvector-optimisation
 modified Broyden-mixing scheme, WC =      100.0
 initial mixing is a Kerker type mixing with AMIX =  0.4000 and BMIX =      1.0000
 Hartree-type preconditioning will be used
 using additional bands           33
 real space projection scheme for non local part
 use partial core corrections
 calculate Harris-corrections to forces 
   (improved forces if not selfconsistent)
 use gradient corrections 
 use of overlap-Matrix (Vanderbilt PP)
 Fermi weights with tetrahedron method with Bloechl corrections


--------------------------------------------------------------------------------------------------------


  energy-cutoff  :      520.00
  volume of cell :      350.80
      direct lattice vectors                 reciprocal lattice vectors
     3.884046139  3.884046139 -0.000000000     0.171651590  0.085811880 -0.043024474
    -3.884127936  7.768174065 -0.002675538    -0.085810087  0.085810087 -0.042964806
     0.001769091  3.882277048  7.750220551    -0.000029623  0.000029623  0.129013754

  length of vectors
     5.492870727  8.685101340  8.668217625     0.196669908  0.128735063  0.129013761


 
 k-points in units of 2pi/SCALE and weight: Automatic mesh                          
   0.00000000  0.00000000  0.00000000       0.028
   0.04291290  0.02145297 -0.01075612       0.056
   0.08582580  0.04290594 -0.02151224       0.028
  -0.02860336  0.02860336 -0.01432160       0.056
   0.01430954  0.05005633 -0.02507772       0.056
   0.05722243  0.07150930 -0.03583384       0.056
  -0.07151626  0.00715039 -0.00356548       0.056
  -0.00000987  0.00000987  0.04300458       0.056
   0.04290302  0.02146284  0.03224847       0.056
   0.08581592  0.04291581  0.02149235       0.056
  -0.04292277 -0.02144310  0.05376070       0.056
  -0.02861324  0.02861324  0.02868298       0.056
   0.01429966  0.05006621  0.01792686       0.056
   0.05721256  0.07151918  0.00717075       0.056
  -0.07152613  0.00716027  0.03943910       0.056
   0.02859349 -0.02859349  0.05732619       0.056
   0.07150639 -0.00714052  0.04657007       0.056
   0.11441928  0.01431245  0.03581395       0.056
  -0.01431941 -0.05004646  0.06808231       0.056
 
 k-points in reciprocal lattice and weights: Automatic mesh                          
   0.00000000  0.00000000  0.00000000       0.028
   0.25000000 -0.00000000  0.00000000       0.056
   0.50000000 -0.00000000  0.00000000       0.028
   0.00000000  0.33333333  0.00000000       0.056
   0.25000000  0.33333333  0.00000000       0.056
   0.50000000  0.33333333  0.00000000       0.056
  -0.25000000  0.33333333 -0.00000000       0.056
  -0.00000000  0.00000000  0.33333333       0.056
   0.25000000 -0.00000000  0.33333333       0.056
   0.50000000  0.00000000  0.33333333       0.056
  -0.25000000 -0.00000000  0.33333333       0.056
  -0.00000000  0.33333333  0.33333333       0.056
   0.25000000  0.33333333  0.33333333       0.056
   0.50000000  0.33333333  0.33333333       0.056
  -0.25000000  0.33333333  0.33333333       0.056
   0.00000000 -0.33333333  0.33333333       0.056
   0.25000000 -0.33333333  0.33333333       0.056
   0.50000000 -0.33333333  0.33333333       0.056
  -0.25000000 -0.33333333  0.33333333       0.056
 
 position of ions in fractional coordinates (direct lattice) 
   0.83881997  0.82887719  0.49348278
   0.66118003  0.67112281  0.00651722
   0.49615556  0.51832545  0.48936343
   0.32861598  0.34090544  0.00186250
   0.17138402  0.15909456  0.49813750
   0.00384444  0.98167455  0.01063657
   0.75000000  0.25000000  0.25000000
   0.58257608  0.08354482  0.75130292
   0.91742392  0.41645518  0.74869708
   0.08493887  0.58033767  0.24978448
   0.25000000  0.75000000  0.75000000
   0.41506113  0.91966233  0.25021552
   0.66743853  0.16712063  0.49800241
   0.83256147  0.33287937  0.00199759
   0.99837913  0.49721358  0.50602817
   0.16884925  0.66502568  0.99727593
   0.33115075  0.83497432  0.50272407
   0.50162087  0.00278642  0.99397183
   0.41996547  0.92294197  0.75026846
   0.58607911  0.08833965  0.24939242
   0.75000000  0.25000000  0.75000000
   0.91392089  0.41166035  0.25060758
   0.08003453  0.57705803  0.74973154
   0.25000000  0.75000000  0.25000000
   0.25000000  0.25000000  0.75000000
   0.42381128  0.41166035  0.25060758
   0.59317579  0.57705803  0.74973154
   0.75000000  0.75000000  0.25000000
   0.90682421  0.92294197  0.75026846
   0.07618872  0.08833965  0.24939242
 
 position of ions in cartesian coordinates  (Angst):
   0.03942343 11.61271459  3.82238267
  -0.03866158  7.80675424  0.04871430
  -0.08528551  7.85337779  3.79128768
  -0.04775743  3.93180318  0.01352267
   0.04860108  3.83544545  3.86024984
  -3.79799877  7.68204490  0.07980929
   1.94244489  5.82564738  1.93688625
   1.93958275  5.82850914  5.82253979
   1.94707613  9.70506267  5.80145326
  -1.92375737  5.80780311  1.93433208
  -1.94075760  9.70884987  5.81065876
  -1.95952692  9.72761958  1.93676489
   1.94412516  5.82396750  3.85918139
   1.94076462  5.82732726  0.01459111
   1.94740467  9.70473374  3.92049957
  -1.92546228  9.69355494  7.72732909
  -1.95605292  9.72414480  3.89398843
   1.93925421  5.82883807  7.70349348
  -1.95233212 11.71348909  5.81227664
   1.93367701  3.93080654  1.93260992
   1.94332944  7.76678591  5.81199653
   1.95121278  7.72048823  1.94116259
  -1.92918307  7.70421064  5.80904088
  -1.94164214  7.76771135  1.93554848
   0.00130637  5.82476284  5.81199653
   0.04760444  5.81687988  1.94116259
   0.06388124  9.69727496  5.80904088
   0.00038093  9.70973441  1.93554848
  -0.06135030 13.60447092  5.81227664
  -0.04676079  1.95036874  1.93260992
 


--------------------------------------------------------------------------------------------------------


 k-point  1 :   0.0000 0.0000 0.0000  plane waves:    9423
 k-point  2 :   0.2500-0.0000 0.0000  plane waves:    9444
 k-point  3 :   0.5000-0.0000 0.0000  plane waves:    9454
 k-point  4 :   0.0000 0.3333 0.0000  plane waves:    9454
 k-point  5 :   0.2500 0.3333 0.0000  plane waves:    9427
 k-point  6 :   0.5000 0.3333 0.0000  plane waves:    9452
 k-point  7 :  -0.2500 0.3333-0.0000  plane waves:    9447
 k-point  8 :  -0.0000 0.0000 0.3333  plane waves:    9451
 k-point  9 :   0.2500-0.0000 0.3333  plane waves:    9430
 k-point 10 :   0.5000 0.0000 0.3333  plane waves:    9457
 k-point 11 :  -0.2500-0.0000 0.3333  plane waves:    9444
 k-point 12 :  -0.0000 0.3333 0.3333  plane waves:    9461
 k-point 13 :   0.2500 0.3333 0.3333  plane waves:    9448
 k-point 14 :   0.5000 0.3333 0.3333  plane waves:    9440
 k-point 15 :  -0.2500 0.3333 0.3333  plane waves:    9480
 k-point 16 :   0.0000-0.3333 0.3333  plane waves:    9438
 k-point 17 :   0.2500-0.3333 0.3333  plane waves:    9451
 k-point 18 :   0.5000-0.3333 0.3333  plane waves:    9449
 k-point 19 :  -0.2500-0.3333 0.3333  plane waves:    9451

 maximum and minimum number of plane-waves per node :       973      903

 maximum number of plane-waves:      9480
 maximum index in each direction: 
   IXMAX=   10   IYMAX=   16   IZMAX=   16
   IXMIN=  -10   IYMIN=  -16   IZMIN=  -16


 real space projection operators:
  total allocation   :      23853.72 KBytes
  max/ min on nodes  :       2843.23       2256.08


 parallel 3D FFT for wavefunctions:
    minimum data exchange during FFTs selected (reduces bandwidth)
 parallel 3D FFT for charge:
    minimum data exchange during FFTs selected (reduces bandwidth)


 total amount of memory used by VASP MPI-rank0    97868. kBytes
=======================================================================

   base      :      30000. kBytes
   nonlr-proj:       8459. kBytes
   fftplans  :       3594. kBytes
   grid      :      10516. kBytes
   one-center:        294. kBytes
   wavefun   :      45005. kBytes
 
     INWAV:  cpu time    0.0000: real time    0.0001
 Broyden mixing: mesh for mixing (old mesh)
   NGX = 21   NGY = 33   NGZ = 33
  (NGX  = 84   NGY  =140   NGZ  =128)
  gives a total of  22869 points

 initial charge density was supplied:
 charge density of overlapping atoms calculated
 number of electron     225.0000000 magnetization      21.0000000
 keeping initial charge density in first step


--------------------------------------------------------------------------------------------------------


 Maximum index for non-local projection operator         1374
 Maximum index for augmentation-charges         2095 (set IRDMAX)


--------------------------------------------------------------------------------------------------------


 First call to EWALD:  gamma=   0.251
 Maximum number of real-space cells 4x 3x 3
 Maximum number of reciprocal cells 2x 3x 3

    FEWALD:  cpu time    0.0017: real time    0.0017


--------------------------------------- Iteration      1(   1)  ---------------------------------------


    POTLOK:  cpu time    0.1030: real time    0.1054
    SETDIJ:  cpu time    0.0161: real time    0.0162
atom =   1  type =  1  l = 0
 
 onsite density matrix
 
spin component  1
 
  1.0989
 
spin component  2
 
  1.0989
 
 occupancies and eigenvectors
 
  o =  1.0989  v =  1.0000  0.0000      0.0000  0.0000
  o =  1.0989  v =  0.0000  1.0000      0.0000  0.0000
atom =   2  type =  1  l = 0
 
 onsite density matrix
 
spin component  1
 
  1.0989
 
spin component  2
 
  1.0989
 
 occupancies and eigenvectors
 
  o =  1.0989  v =  1.0000  0.0000      0.0000  0.0000
  o =  1.0989  v =  0.0000  1.0000      0.0000  0.0000
atom =   3  type =  1  l = 0
 
 onsite density matrix
 
spin component  1
 
  1.0989
 
spin component  2
 
  1.0989
 
 occupancies and eigenvectors
 
  o =  1.0989  v =  1.0000  0.0000      0.0000  0.0000
  o =  1.0989  v =  0.0000  1.0000      0.0000  0.0000
atom =   4  type =  1  l = 0
 
 onsite density matrix
 
spin component  1
 
  1.0989
 
spin component  2
 
  1.0989
 
 occupancies and eigenvectors
 
  o =  1.0989  v =  1.0000  0.0000      0.0000  0.0000
  o =  1.0989  v =  0.0000  1.0000      0.0000  0.0000
atom =   5  type =  1  l = 0
 
 onsite density matrix
 
spin component  1
 
  1.0989
 
spin component  2
 
  1.0989
 
 occupancies and eigenvectors
 
  o =  1.0989  v =  1.0000  0.0000      0.0000  0.0000
  o =  1.0989  v =  0.0000  1.0000      0.0000  0.0000
atom =   6  type =  1  l = 0
 
 onsite density matrix
 
spin component  1
 
  1.0989
 
spin component  2
 
  1.0989
 
 occupancies and eigenvectors
 
  o =  1.0989  v =  1.0000  0.0000      0.0000  0.0000
  o =  1.0989  v =  0.0000  1.0000      0.0000  0.0000
atom =   7  type =  2  l = 2
 
 onsite density matrix
 
spin component  1
 
  0.8272  0.0000  0.0000  0.0000  0.0000
  0.0000  0.8272  0.0000  0.0000  0.0000
  0.0000  0.0000  0.8272  0.0000  0.0000
  0.0000  0.0000  0.0000  0.8272  0.0000
  0.0000  0.0000  0.0000  0.0000  0.8272
 
spin component  2
 
  0.2256  0.0000  0.0000  0.0000  0.0000
  0.0000  0.2256  0.0000  0.0000  0.0000
  0.0000  0.0000  0.2256  0.0000  0.0000
  0.0000  0.0000  0.0000  0.2256  0.0000
  0.0000  0.0000  0.0000  0.0000  0.2256
 
 occupancies and eigenvectors
 
  o =  0.2256  v =  0.0000  0.0000  0.0000  0.0000  0.0000  0.0000  0.0000  1.0000  0.0000  0.0000      0.0000  0.0000  0.0000  0.0000  0.0000  0.0000  0.0000  0.0000  0.0000  0.0000
  o =  0.2256  v =  0.0000  0.0000  0.0000  0.0000  0.0000  1.0000  0.0000  0.0000  0.0000  0.0000      0.0000  0.0000  0.0000  0.0000  0.0000  0.0000  0.0000  0.0000  0.0000  0.0000
  o =  0.2256  v =  0.0000  0.0000  0.0000  0.0000  0.0000  0.0000  1.0000  0.0000  0.0000  0.0000      0.0000  0.0000  0.0000  0.0000  0.0000  0.0000  0.0000  0.0000  0.0000  0.0000
  o =  0.2256  v =  0.0000  0.0000  0.0000  0.0000  0.0000  0.0000  0.0000  0.0000  1.0000  0.0000      0.0000  0.0000  0.0000  0.0000  0.0000  0.0000  0.0000  0.0000  0.0000  0.0000
  o =  0.2256  v =  0.0000  0.0000  0.0000  0.0000  0.0000  0.0000  0.0000  0.0000  0.0000  1.0000      0.0000  0.0000  0.0000  0.0000  0.0000  0.0000  0.0000  0.0000  0.0000  0.0000
  o =  0.8272  v =  0.0000  1.0000  0.0000  0.0000  0.0000  0.0000  0.0000  0.0000  0.0000  0.0000      0.0000  0.0000  0.0000  0.0000  0.0000  0.0000  0.0000  0.0000  0.0000  0.0000
  o =  0.8272  v =  0.0000  0.0000  1.0000  0.0000  0.0000  0.0000  0.0000  0.0000  0.0000  0.0000      0.0000  0.0000  0.0000  0.0000  0.0000  0.0000  0.0000  0.0000  0.0000  0.0000
  o =  0.8272  v =  1.0000  0.0000  0.0000  0.0000  0.0000  0.0000  0.0000  0.0000  0.0000  0.0000      0.0000  0.0000  0.0000  0.0000  0.0000  0.0000  0.0000  0.0000  0.0000  0.0000
  o =  0.8272  v =  0.0000  0.0000  0.0000  1.0000  0.0000  0.0000  0.0000  0.0000  0.0000  0.0000      0.0000  0.0000  0.0000  0.0000  0.0000  0.0000  0.0000  0.0000  0.0000  0.0000
  o =  0.8272  v =  0.0000  0.0000  0.0000  0.0000  1.0000  0.0000  0.0000  0.0000  0.0000  0.0000      0.0000  0.0000  0.0000  0.0000  0.0000  0.0000  0.0000  0.0000  0.0000  0.0000
atom =   8  type =  2  l = 2
 
 onsite density matrix
 
spin component  1
 
  0.8272  0.0000  0.0000  0.0000  0.0000
  0.0000  0.8272  0.0000  0.0000  0.0000
  0.0000  0.0000  0.8272  0.0000  0.0000
  0.0000  0.0000  0.0000  0.8272  0.0000
  0.0000  0.0000  0.0000  0.0000  0.8272
 
spin component  2
 
  0.2256  0.0000  0.0000  0.0000  0.0000
  0.0000  0.2256  0.0000  0.0000  0.0000
  0.0000  0.0000  0.2256  0.0000  0.0000
  0.0000  0.0000  0.0000  0.2256  0.0000
  0.0000  0.0000  0.0000  0.0000  0.2256
 
 occupancies and eigenvectors
 
  o =  0.2256  v =  0.0000  0.0000  0.0000  0.0000  0.0000  0.0000  0.0000  1.0000  0.0000  0.0000      0.0000  0.0000  0.0000  0.0000  0.0000  0.0000  0.0000  0.0000  0.0000  0.0000
  o =  0.2256  v =  0.0000  0.0000  0.0000  0.0000  0.0000  1.0000  0.0000  0.0000  0.0000  0.0000      0.0000  0.0000  0.0000  0.0000  0.0000  0.0000  0.0000  0.0000  0.0000  0.0000
  o =  0.2256  v =  0.0000  0.0000  0.0000  0.0000  0.0000  0.0000  1.0000  0.0000  0.0000  0.0000      0.0000  0.0000  0.0000  0.0000  0.0000  0.0000  0.0000  0.0000  0.0000  0.0000
  o =  0.2256  v =  0.0000  0.0000  0.0000  0.0000  0.0000  0.0000  0.0000  0.0000  1.0000  0.0000      0.0000  0.0000  0.0000  0.0000  0.0000  0.0000  0.0000  0.0000  0.0000  0.0000
  o =  0.2256  v =  0.0000  0.0000  0.0000  0.0000  0.0000  0.0000  0.0000  0.0000  0.0000  1.0000      0.0000  0.0000  0.0000  0.0000  0.0000  0.0000  0.0000  0.0000  0.0000  0.0000
  o =  0.8272  v =  0.0000  1.0000  0.0000  0.0000  0.0000  0.0000  0.0000  0.0000  0.0000  0.0000      0.0000  0.0000  0.0000  0.0000  0.0000  0.0000  0.0000  0.0000  0.0000  0.0000
  o =  0.8272  v =  0.0000  0.0000  1.0000  0.0000  0.0000  0.0000  0.0000  0.0000  0.0000  0.0000      0.0000  0.0000  0.0000  0.0000  0.0000  0.0000  0.0000  0.0000  0.0000  0.0000
  o =  0.8272  v =  1.0000  0.0000  0.0000  0.0000  0.0000  0.0000  0.0000  0.0000  0.0000  0.0000      0.0000  0.0000  0.0000  0.0000  0.0000  0.0000  0.0000  0.0000  0.0000  0.0000
  o =  0.8272  v =  0.0000  0.0000  0.0000  1.0000  0.0000  0.0000  0.0000  0.0000  0.0000  0.0000      0.0000  0.0000  0.0000  0.0000  0.0000  0.0000  0.0000  0.0000  0.0000  0.0000
  o =  0.8272  v =  0.0000  0.0000  0.0000  0.0000  1.0000  0.0000  0.0000  0.0000  0.0000  0.0000      0.0000  0.0000  0.0000  0.0000  0.0000  0.0000  0.0000  0.0000  0.0000  0.0000
atom =   9  type =  2  l = 2
 
 onsite density matrix
 
spin component  1
 
  0.8272  0.0000  0.0000  0.0000  0.0000
  0.0000  0.8272  0.0000  0.0000  0.0000
  0.0000  0.0000  0.8272  0.0000  0.0000
  0.0000  0.0000  0.0000  0.8272  0.0000
  0.0000  0.0000  0.0000  0.0000  0.8272
 
spin component  2
 
  0.2256  0.0000  0.0000  0.0000  0.0000
  0.0000  0.2256  0.0000  0.0000  0.0000
  0.0000  0.0000  0.2256  0.0000  0.0000
  0.0000  0.0000  0.0000  0.2256  0.0000
  0.0000  0.0000  0.0000  0.0000  0.2256
 
 occupancies and eigenvectors
 
  o =  0.2256  v =  0.0000  0.0000  0.0000  0.0000  0.0000  0.0000  0.0000  1.0000  0.0000  0.0000      0.0000  0.0000  0.0000  0.0000  0.0000  0.0000  0.0000  0.0000  0.0000  0.0000
  o =  0.2256  v =  0.0000  0.0000  0.0000  0.0000  0.0000  1.0000  0.0000  0.0000  0.0000  0.0000      0.0000  0.0000  0.0000  0.0000  0.0000  0.0000  0.0000  0.0000  0.0000  0.0000
  o =  0.2256  v =  0.0000  0.0000  0.0000  0.0000  0.0000  0.0000  1.0000  0.0000  0.0000  0.0000      0.0000  0.0000  0.0000  0.0000  0.0000  0.0000  0.0000  0.0000  0.0000  0.0000
  o =  0.2256  v =  0.0000  0.0000  0.0000  0.0000  0.0000  0.0000  0.0000  0.0000  1.0000  0.0000      0.0000  0.0000  0.0000  0.0000  0.0000  0.0000  0.0000  0.0000  0.0000  0.0000
  o =  0.2256  v =  0.0000  0.0000  0.0000  0.0000  0.0000  0.0000  0.0000  0.0000  0.0000  1.0000      0.0000  0.0000  0.0000  0.0000  0.0000  0.0000  0.0000  0.0000  0.0000  0.0000
  o =  0.8272  v =  0.0000  1.0000  0.0000  0.0000  0.0000  0.0000  0.0000  0.0000  0.0000  0.0000      0.0000  0.0000  0.0000  0.0000  0.0000  0.0000  0.0000  0.0000  0.0000  0.0000
  o =  0.8272  v =  0.0000  0.0000  1.0000  0.0000  0.0000  0.0000  0.0000  0.0000  0.0000  0.0000      0.0000  0.0000  0.0000  0.0000  0.0000  0.0000  0.0000  0.0000  0.0000  0.0000
  o =  0.8272  v =  1.0000  0.0000  0.0000  0.0000  0.0000  0.0000  0.0000  0.0000  0.0000  0.0000      0.0000  0.0000  0.0000  0.0000  0.0000  0.0000  0.0000  0.0000  0.0000  0.0000
  o =  0.8272  v =  0.0000  0.0000  0.0000  1.0000  0.0000  0.0000  0.0000  0.0000  0.0000  0.0000      0.0000  0.0000  0.0000  0.0000  0.0000  0.0000  0.0000  0.0000  0.0000  0.0000
  o =  0.8272  v =  0.0000  0.0000  0.0000  0.0000  1.0000  0.0000  0.0000  0.0000  0.0000  0.0000      0.0000  0.0000  0.0000  0.0000  0.0000  0.0000  0.0000  0.0000  0.0000  0.0000
atom =  10  type =  3  l = 2
 
 onsite density matrix
 
spin component  1
 
  1.1008  0.0000  0.0000  0.0000  0.0000
  0.0000  1.1008  0.0000  0.0000  0.0000
  0.0000  0.0000  1.1008  0.0000  0.0000
  0.0000  0.0000  0.0000  1.1008  0.0000
  0.0000  0.0000  0.0000  0.0000  1.1008
 
spin component  2
 
  0.5927  0.0000  0.0000  0.0000  0.0000
  0.0000  0.5927  0.0000  0.0000  0.0000
  0.0000  0.0000  0.5927  0.0000  0.0000
  0.0000  0.0000  0.0000  0.5927  0.0000
  0.0000  0.0000  0.0000  0.0000  0.5927
 
 occupancies and eigenvectors
 
  o =  0.5927  v =  0.0000  0.0000  0.0000  0.0000  0.0000  1.0000  0.0000  0.0000  0.0000  0.0000      0.0000  0.0000  0.0000  0.0000  0.0000  0.0000  0.0000  0.0000  0.0000  0.0000
  o =  0.5927  v =  0.0000  0.0000  0.0000  0.0000  0.0000  0.0000  1.0000  0.0000  0.0000  0.0000      0.0000  0.0000  0.0000  0.0000  0.0000  0.0000  0.0000  0.0000  0.0000  0.0000
  o =  0.5927  v =  0.0000  0.0000  0.0000  0.0000  0.0000  0.0000  0.0000  1.0000  0.0000  0.0000      0.0000  0.0000  0.0000  0.0000  0.0000  0.0000  0.0000  0.0000  0.0000  0.0000
  o =  0.5927  v =  0.0000  0.0000  0.0000  0.0000  0.0000  0.0000  0.0000  0.0000  1.0000  0.0000      0.0000  0.0000  0.0000  0.0000  0.0000  0.0000  0.0000  0.0000  0.0000  0.0000
  o =  0.5927  v =  0.0000  0.0000  0.0000  0.0000  0.0000  0.0000  0.0000  0.0000  0.0000  1.0000      0.0000  0.0000  0.0000  0.0000  0.0000  0.0000  0.0000  0.0000  0.0000  0.0000
  o =  1.1008  v =  1.0000  0.0000  0.0000  0.0000  0.0000  0.0000  0.0000  0.0000  0.0000  0.0000      0.0000  0.0000  0.0000  0.0000  0.0000  0.0000  0.0000  0.0000  0.0000  0.0000
  o =  1.1008  v =  0.0000  1.0000  0.0000  0.0000  0.0000  0.0000  0.0000  0.0000  0.0000  0.0000      0.0000  0.0000  0.0000  0.0000  0.0000  0.0000  0.0000  0.0000  0.0000  0.0000
  o =  1.1008  v =  0.0000  0.0000  1.0000  0.0000  0.0000  0.0000  0.0000  0.0000  0.0000  0.0000      0.0000  0.0000  0.0000  0.0000  0.0000  0.0000  0.0000  0.0000  0.0000  0.0000
  o =  1.1008  v =  0.0000  0.0000  0.0000  1.0000  0.0000  0.0000  0.0000  0.0000  0.0000  0.0000      0.0000  0.0000  0.0000  0.0000  0.0000  0.0000  0.0000  0.0000  0.0000  0.0000
  o =  1.1008  v =  0.0000  0.0000  0.0000  0.0000  1.0000  0.0000  0.0000  0.0000  0.0000  0.0000      0.0000  0.0000  0.0000  0.0000  0.0000  0.0000  0.0000  0.0000  0.0000  0.0000
atom =  11  type =  3  l = 2
 
 onsite density matrix
 
spin component  1
 
  1.1008  0.0000  0.0000  0.0000  0.0000
  0.0000  1.1008  0.0000  0.0000  0.0000
  0.0000  0.0000  1.1008  0.0000  0.0000
  0.0000  0.0000  0.0000  1.1008  0.0000
  0.0000  0.0000  0.0000  0.0000  1.1008
 
spin component  2
 
  0.5927  0.0000  0.0000  0.0000  0.0000
  0.0000  0.5927  0.0000  0.0000  0.0000
  0.0000  0.0000  0.5927  0.0000  0.0000
  0.0000  0.0000  0.0000  0.5927  0.0000
  0.0000  0.0000  0.0000  0.0000  0.5927
 
 occupancies and eigenvectors
 
  o =  0.5927  v =  0.0000  0.0000  0.0000  0.0000  0.0000  1.0000  0.0000  0.0000  0.0000  0.0000      0.0000  0.0000  0.0000  0.0000  0.0000  0.0000  0.0000  0.0000  0.0000  0.0000
  o =  0.5927  v =  0.0000  0.0000  0.0000  0.0000  0.0000  0.0000  1.0000  0.0000  0.0000  0.0000      0.0000  0.0000  0.0000  0.0000  0.0000  0.0000  0.0000  0.0000  0.0000  0.0000
  o =  0.5927  v =  0.0000  0.0000  0.0000  0.0000  0.0000  0.0000  0.0000  1.0000  0.0000  0.0000      0.0000  0.0000  0.0000  0.0000  0.0000  0.0000  0.0000  0.0000  0.0000  0.0000
  o =  0.5927  v =  0.0000  0.0000  0.0000  0.0000  0.0000  0.0000  0.0000  0.0000  1.0000  0.0000      0.0000  0.0000  0.0000  0.0000  0.0000  0.0000  0.0000  0.0000  0.0000  0.0000
  o =  0.5927  v =  0.0000  0.0000  0.0000  0.0000  0.0000  0.0000  0.0000  0.0000  0.0000  1.0000      0.0000  0.0000  0.0000  0.0000  0.0000  0.0000  0.0000  0.0000  0.0000  0.0000
  o =  1.1008  v =  1.0000  0.0000  0.0000  0.0000  0.0000  0.0000  0.0000  0.0000  0.0000  0.0000      0.0000  0.0000  0.0000  0.0000  0.0000  0.0000  0.0000  0.0000  0.0000  0.0000
  o =  1.1008  v =  0.0000  1.0000  0.0000  0.0000  0.0000  0.0000  0.0000  0.0000  0.0000  0.0000      0.0000  0.0000  0.0000  0.0000  0.0000  0.0000  0.0000  0.0000  0.0000  0.0000
  o =  1.1008  v =  0.0000  0.0000  1.0000  0.0000  0.0000  0.0000  0.0000  0.0000  0.0000  0.0000      0.0000  0.0000  0.0000  0.0000  0.0000  0.0000  0.0000  0.0000  0.0000  0.0000
  o =  1.1008  v =  0.0000  0.0000  0.0000  1.0000  0.0000  0.0000  0.0000  0.0000  0.0000  0.0000      0.0000  0.0000  0.0000  0.0000  0.0000  0.0000  0.0000  0.0000  0.0000  0.0000
  o =  1.1008  v =  0.0000  0.0000  0.0000  0.0000  1.0000  0.0000  0.0000  0.0000  0.0000  0.0000      0.0000  0.0000  0.0000  0.0000  0.0000  0.0000  0.0000  0.0000  0.0000  0.0000
atom =  12  type =  3  l = 2
 
 onsite density matrix
 
spin component  1
 
  1.1008  0.0000  0.0000  0.0000  0.0000
  0.0000  1.1008  0.0000  0.0000  0.0000
  0.0000  0.0000  1.1008  0.0000  0.0000
  0.0000  0.0000  0.0000  1.1008  0.0000
  0.0000  0.0000  0.0000  0.0000  1.1008
 
spin component  2
 
  0.5927  0.0000  0.0000  0.0000  0.0000
  0.0000  0.5927  0.0000  0.0000  0.0000
  0.0000  0.0000  0.5927  0.0000  0.0000
  0.0000  0.0000  0.0000  0.5927  0.0000
  0.0000  0.0000  0.0000  0.0000  0.5927
 
 occupancies and eigenvectors
 
  o =  0.5927  v =  0.0000  0.0000  0.0000  0.0000  0.0000  1.0000  0.0000  0.0000  0.0000  0.0000      0.0000  0.0000  0.0000  0.0000  0.0000  0.0000  0.0000  0.0000  0.0000  0.0000
  o =  0.5927  v =  0.0000  0.0000  0.0000  0.0000  0.0000  0.0000  1.0000  0.0000  0.0000  0.0000      0.0000  0.0000  0.0000  0.0000  0.0000  0.0000  0.0000  0.0000  0.0000  0.0000
  o =  0.5927  v =  0.0000  0.0000  0.0000  0.0000  0.0000  0.0000  0.0000  1.0000  0.0000  0.0000      0.0000  0.0000  0.0000  0.0000  0.0000  0.0000  0.0000  0.0000  0.0000  0.0000
  o =  0.5927  v =  0.0000  0.0000  0.0000  0.0000  0.0000  0.0000  0.0000  0.0000  1.0000  0.0000      0.0000  0.0000  0.0000  0.0000  0.0000  0.0000  0.0000  0.0000  0.0000  0.0000
  o =  0.5927  v =  0.0000  0.0000  0.0000  0.0000  0.0000  0.0000  0.0000  0.0000  0.0000  1.0000      0.0000  0.0000  0.0000  0.0000  0.0000  0.0000  0.0000  0.0000  0.0000  0.0000
  o =  1.1008  v =  1.0000  0.0000  0.0000  0.0000  0.0000  0.0000  0.0000  0.0000  0.0000  0.0000      0.0000  0.0000  0.0000  0.0000  0.0000  0.0000  0.0000  0.0000  0.0000  0.0000
  o =  1.1008  v =  0.0000  1.0000  0.0000  0.0000  0.0000  0.0000  0.0000  0.0000  0.0000  0.0000      0.0000  0.0000  0.0000  0.0000  0.0000  0.0000  0.0000  0.0000  0.0000  0.0000
  o =  1.1008  v =  0.0000  0.0000  1.0000  0.0000  0.0000  0.0000  0.0000  0.0000  0.0000  0.0000      0.0000  0.0000  0.0000  0.0000  0.0000  0.0000  0.0000  0.0000  0.0000  0.0000
  o =  1.1008  v =  0.0000  0.0000  0.0000  1.0000  0.0000  0.0000  0.0000  0.0000  0.0000  0.0000      0.0000  0.0000  0.0000  0.0000  0.0000  0.0000  0.0000  0.0000  0.0000  0.0000
  o =  1.1008  v =  0.0000  0.0000  0.0000  0.0000  1.0000  0.0000  0.0000  0.0000  0.0000  0.0000      0.0000  0.0000  0.0000  0.0000  0.0000  0.0000  0.0000  0.0000  0.0000  0.0000
atom =  13  type =  4  l = 0
 
 onsite density matrix
 
spin component  1
 
  0.8190
 
spin component  2
 
  0.8190
 
 occupancies and eigenvectors
 
  o =  0.8190  v =  1.0000  0.0000      0.0000  0.0000
  o =  0.8190  v =  0.0000  1.0000      0.0000  0.0000
atom =  14  type =  4  l = 0
 
 onsite density matrix
 
spin component  1
 
  0.8190
 
spin component  2
 
  0.8190
 
 occupancies and eigenvectors
 
  o =  0.8190  v =  1.0000  0.0000      0.0000  0.0000
  o =  0.8190  v =  0.0000  1.0000      0.0000  0.0000
atom =  15  type =  4  l = 0
 
 onsite density matrix
 
spin component  1
 
  0.8190
 
spin component  2
 
  0.8190
 
 occupancies and eigenvectors
 
  o =  0.8190  v =  1.0000  0.0000      0.0000  0.0000
  o =  0.8190  v =  0.0000  1.0000      0.0000  0.0000
atom =  16  type =  4  l = 0
 
 onsite density matrix
 
spin component  1
 
  0.8190
 
spin component  2
 
  0.8190
 
 occupancies and eigenvectors
 
  o =  0.8190  v =  1.0000  0.0000      0.0000  0.0000
  o =  0.8190  v =  0.0000  1.0000      0.0000  0.0000
atom =  17  type =  4  l = 0
 
 onsite density matrix
 
spin component  1
 
  0.8190
 
spin component  2
 
  0.8190
 
 occupancies and eigenvectors
 
  o =  0.8190  v =  1.0000  0.0000      0.0000  0.0000
  o =  0.8190  v =  0.0000  1.0000      0.0000  0.0000
atom =  18  type =  4  l = 0
 
 onsite density matrix
 
spin component  1
 
  0.8190
 
spin component  2
 
  0.8190
 
 occupancies and eigenvectors
 
  o =  0.8190  v =  1.0000  0.0000      0.0000  0.0000
  o =  0.8190  v =  0.0000  1.0000      0.0000  0.0000
atom =  19  type =  4  l = 0
 
 onsite density matrix
 
spin component  1
 
  0.8190
 
spin component  2
 
  0.8190
 
 occupancies and eigenvectors
 
  o =  0.8190  v =  1.0000  0.0000      0.0000  0.0000
  o =  0.8190  v =  0.0000  1.0000      0.0000  0.0000
atom =  20  type =  4  l = 0
 
 onsite density matrix
 
spin component  1
 
  0.8190
 
spin component  2
 
  0.8190
 
 occupancies and eigenvectors
 
  o =  0.8190  v =  1.0000  0.0000      0.0000  0.0000
  o =  0.8190  v =  0.0000  1.0000      0.0000  0.0000
atom =  21  type =  4  l = 0
 
 onsite density matrix
 
spin component  1
 
  0.8190
 
spin component  2
 
  0.8190
 
 occupancies and eigenvectors
 
  o =  0.8190  v =  1.0000  0.0000      0.0000  0.0000
  o =  0.8190  v =  0.0000  1.0000      0.0000  0.0000
atom =  22  type =  4  l = 0
 
 onsite density matrix
 
spin component  1
 
  0.8190
 
spin component  2
 
  0.8190
 
 occupancies and eigenvectors
 
  o =  0.8190  v =  1.0000  0.0000      0.0000  0.0000
  o =  0.8190  v =  0.0000  1.0000      0.0000  0.0000
atom =  23  type =  4  l = 0
 
 onsite density matrix
 
spin component  1
 
  0.8190
 
spin component  2
 
  0.8190
 
 occupancies and eigenvectors
 
  o =  0.8190  v =  1.0000  0.0000      0.0000  0.0000
  o =  0.8190  v =  0.0000  1.0000      0.0000  0.0000
atom =  24  type =  4  l = 0
 
 onsite density matrix
 
spin component  1
 
  0.8190
 
spin component  2
 
  0.8190
 
 occupancies and eigenvectors
 
  o =  0.8190  v =  1.0000  0.0000      0.0000  0.0000
  o =  0.8190  v =  0.0000  1.0000      0.0000  0.0000
atom =  25  type =  4  l = 0
 
 onsite density matrix
 
spin component  1
 
  0.8190
 
spin component  2
 
  0.8190
 
 occupancies and eigenvectors
 
  o =  0.8190  v =  1.0000  0.0000      0.0000  0.0000
  o =  0.8190  v =  0.0000  1.0000      0.0000  0.0000
atom =  26  type =  4  l = 0
 
 onsite density matrix
 
spin component  1
 
  0.8190
 
spin component  2
 
  0.8190
 
 occupancies and eigenvectors
 
  o =  0.8190  v =  1.0000  0.0000      0.0000  0.0000
  o =  0.8190  v =  0.0000  1.0000      0.0000  0.0000
atom =  27  type =  4  l = 0
 
 onsite density matrix
 
spin component  1
 
  0.8190
 
spin component  2
 
  0.8190
 
 occupancies and eigenvectors
 
  o =  0.8190  v =  1.0000  0.0000      0.0000  0.0000
  o =  0.8190  v =  0.0000  1.0000      0.0000  0.0000
atom =  28  type =  4  l = 0
 
 onsite density matrix
 
spin component  1
 
  0.8190
 
spin component  2
 
  0.8190
 
 occupancies and eigenvectors
 
  o =  0.8190  v =  1.0000  0.0000      0.0000  0.0000
  o =  0.8190  v =  0.0000  1.0000      0.0000  0.0000
atom =  29  type =  4  l = 0
 
 onsite density matrix
 
spin component  1
 
  0.8190
 
spin component  2
 
  0.8190
 
 occupancies and eigenvectors
 
  o =  0.8190  v =  1.0000  0.0000      0.0000  0.0000
  o =  0.8190  v =  0.0000  1.0000      0.0000  0.0000
atom =  30  type =  4  l = 0
 
 onsite density matrix
 
spin component  1
 
  0.8190
 
spin component  2
 
  0.8190
 
 occupancies and eigenvectors
 
  o =  0.8190  v =  1.0000  0.0000      0.0000  0.0000
  o =  0.8190  v =  0.0000  1.0000      0.0000  0.0000
     EDDAV:  cpu time    8.1213: real time    8.1477
 BZINTS: Fermi energy: 32.014086;225.000000 electrons
         Band energy:3387.044501;  BLOECHL correction: -0.221427
       DOS:  cpu time    0.0509: real time    0.0517
    --------------------------------------------
      LOOP:  cpu time    8.2914: real time    8.3210

 eigenvalue-minimisations  : 11872
 total energy-change (2. order) : 0.3579641E+04  (-0.7857053E+04)
 number of electron     225.0000000 magnetization      21.0000000
 augmentation part      225.0000000 magnetization      21.0000000

 Free energy of the ion-electron system (eV)
  ---------------------------------------------------
  alpha Z        PSCENC =       984.40906162
  Ewald energy   TEWEN  =    -15496.18980649
  -Hartree energ DENC   =     -3421.58412322
  -exchange      EXHF   =         0.00000000
  -V(xc)+E(xc)   XCENC  =       754.28690635
  PAW double counting   =     14201.63522633   -14291.52419254
  entropy T*S    EENTRO =         0.00000000
  eigenvalues    EBANDS =      3387.04450140
  atomic energy  EATOM  =     17461.56381371
  Solvation  Ediel_sol  =         0.00000000
  ---------------------------------------------------
  free energy    TOTEN  =      3579.64138716 eV

  energy without entropy =     3579.64138716  energy(sigma->0) =     3579.64138716


--------------------------------------------------------------------------------------------------------




--------------------------------------- Iteration      1(   2)  ---------------------------------------


     EDDAV:  cpu time    8.3752: real time    8.4039
 BZINTS: Fermi energy: 16.592210;225.000000 electrons
         Band energy:1054.233129;  BLOECHL correction: -0.061264
       DOS:  cpu time    0.0533: real time    0.0534
    --------------------------------------------
      LOOP:  cpu time    8.4285: real time    8.4573

 eigenvalue-minimisations  : 12328
 total energy-change (2. order) :-0.2332811E+04  (-0.2100160E+04)
 number of electron     225.0000000 magnetization      21.0000000
 augmentation part      225.0000000 magnetization      21.0000000

 Free energy of the ion-electron system (eV)
  ---------------------------------------------------
  alpha Z        PSCENC =       984.40906162
  Ewald energy   TEWEN  =    -15496.18980649
  -Hartree energ DENC   =     -3421.58412322
  -exchange      EXHF   =         0.00000000
  -V(xc)+E(xc)   XCENC  =       754.28690635
  PAW double counting   =     14201.63522633   -14291.52419254
  entropy T*S    EENTRO =         0.00000000
  eigenvalues    EBANDS =      1054.23312946
  atomic energy  EATOM  =     17461.56381371
  Solvation  Ediel_sol  =         0.00000000
  ---------------------------------------------------
  free energy    TOTEN  =      1246.83001522 eV

  energy without entropy =     1246.83001522  energy(sigma->0) =     1246.83001522


--------------------------------------------------------------------------------------------------------




--------------------------------------- Iteration      1(   3)  ---------------------------------------


     EDDAV:  cpu time    8.4396: real time    8.4674
 BZINTS: Fermi energy: 12.250139;225.000000 electrons
         Band energy:  81.314445;  BLOECHL correction: -0.033122
       DOS:  cpu time    0.0527: real time    0.0528
    --------------------------------------------
      LOOP:  cpu time    8.4923: real time    8.5202

 eigenvalue-minimisations  : 12328
 total energy-change (2. order) :-0.9729187E+03  (-0.8700696E+03)
 number of electron     225.0000000 magnetization      21.0000000
 augmentation part      225.0000000 magnetization      21.0000000

 Free energy of the ion-electron system (eV)
  ---------------------------------------------------
  alpha Z        PSCENC =       984.40906162
  Ewald energy   TEWEN  =    -15496.18980649
  -Hartree energ DENC   =     -3421.58412322
  -exchange      EXHF   =         0.00000000
  -V(xc)+E(xc)   XCENC  =       754.28690635
  PAW double counting   =     14201.63522633   -14291.52419254
  entropy T*S    EENTRO =         0.00000000
  eigenvalues    EBANDS =        81.31444510
  atomic energy  EATOM  =     17461.56381371
  Solvation  Ediel_sol  =         0.00000000
  ---------------------------------------------------
  free energy    TOTEN  =       273.91133086 eV

  energy without entropy =      273.91133086  energy(sigma->0) =      273.91133086


--------------------------------------------------------------------------------------------------------




--------------------------------------- Iteration      1(   4)  ---------------------------------------


     EDDAV:  cpu time   11.3048: real time   11.3429
 BZINTS: Fermi energy: 11.577201;225.000000 electrons
         Band energy:-351.160892;  BLOECHL correction: -0.007195
       DOS:  cpu time    0.0534: real time    0.0535
    --------------------------------------------
      LOOP:  cpu time   11.3582: real time   11.3964

 eigenvalue-minimisations  : 17774
 total energy-change (2. order) :-0.4324753E+03  (-0.4078628E+03)
 number of electron     225.0000000 magnetization      21.0000000
 augmentation part      225.0000000 magnetization      21.0000000

 Free energy of the ion-electron system (eV)
  ---------------------------------------------------
  alpha Z        PSCENC =       984.40906162
  Ewald energy   TEWEN  =    -15496.18980649
  -Hartree energ DENC   =     -3421.58412322
  -exchange      EXHF   =         0.00000000
  -V(xc)+E(xc)   XCENC  =       754.28690635
  PAW double counting   =     14201.63522633   -14291.52419254
  entropy T*S    EENTRO =         0.00000000
  eigenvalues    EBANDS =      -351.16089211
  atomic energy  EATOM  =     17461.56381371
  Solvation  Ediel_sol  =         0.00000000
  ---------------------------------------------------
  free energy    TOTEN  =      -158.56400635 eV

  energy without entropy =     -158.56400635  energy(sigma->0) =     -158.56400635


--------------------------------------------------------------------------------------------------------




--------------------------------------- Iteration      1(   5)  ---------------------------------------


     EDDAV:  cpu time   12.7579: real time   12.7982
 BZINTS: Fermi energy: 11.125666;225.000000 electrons
         Band energy:-441.981214;  BLOECHL correction: -0.028636
       DOS:  cpu time    0.0527: real time    0.0529
    CHARGE:  cpu time    0.3339: real time    0.3347
    MIXING:  cpu time    0.0040: real time    0.0041
    --------------------------------------------
      LOOP:  cpu time   13.1486: real time   13.1900

 eigenvalue-minimisations  : 20270
 total energy-change (2. order) :-0.9082032E+02  (-0.8718036E+02)
 number of electron     224.9999990 magnetization      17.6850717
 augmentation part       28.5144515 magnetization      12.8913008

 Broyden mixing:
  rms(total) = 0.75379E+01    rms(broyden)= 0.75375E+01
  rms(prec ) = 0.93308E+01
  weight for this iteration     100.00

 Free energy of the ion-electron system (eV)
  ---------------------------------------------------
  alpha Z        PSCENC =       984.40906162
  Ewald energy   TEWEN  =    -15496.18980649
  -Hartree energ DENC   =     -3421.58412322
  -exchange      EXHF   =         0.00000000
  -V(xc)+E(xc)   XCENC  =       754.28690635
  PAW double counting   =     14201.63522633   -14291.52419254
  entropy T*S    EENTRO =         0.00000000
  eigenvalues    EBANDS =      -441.98121447
  atomic energy  EATOM  =     17461.56381371
  Solvation  Ediel_sol  =         0.00000000
  ---------------------------------------------------
  free energy    TOTEN  =      -249.38432872 eV

  energy without entropy =     -249.38432872  energy(sigma->0) =     -249.38432872


--------------------------------------------------------------------------------------------------------




--------------------------------------- Iteration      1(   6)  ---------------------------------------


    POTLOK:  cpu time    0.0950: real time    0.0961
    SETDIJ:  cpu time    0.0151: real time    0.0152
atom =   1  type =  1  l = 0
 
 onsite density matrix
 
spin component  1
 
  1.0560
 
spin component  2
 
  1.0563
 
 occupancies and eigenvectors
 
  o =  1.0560  v =  1.0000  0.0000      0.0000  0.0000
  o =  1.0563  v =  0.0000  1.0000      0.0000  0.0000
atom =   2  type =  1  l = 0
 
 onsite density matrix
 
spin component  1
 
  1.0560
 
spin component  2
 
  1.0563
 
 occupancies and eigenvectors
 
  o =  1.0560  v =  1.0000  0.0000      0.0000  0.0000
  o =  1.0563  v =  0.0000  1.0000      0.0000  0.0000
atom =   3  type =  1  l = 0
 
 onsite density matrix
 
spin component  1
 
  1.0568
 
spin component  2
 
  1.0570
 
 occupancies and eigenvectors
 
  o =  1.0568  v =  1.0000  0.0000      0.0000  0.0000
  o =  1.0570  v =  0.0000  1.0000      0.0000  0.0000
atom =   4  type =  1  l = 0
 
 onsite density matrix
 
spin component  1
 
  1.0561
 
spin component  2
 
  1.0563
 
 occupancies and eigenvectors
 
  o =  1.0561  v =  1.0000  0.0000      0.0000  0.0000
  o =  1.0563  v =  0.0000  1.0000      0.0000  0.0000
atom =   5  type =  1  l = 0
 
 onsite density matrix
 
spin component  1
 
  1.0561
 
spin component  2
 
  1.0563
 
 occupancies and eigenvectors
 
  o =  1.0561  v =  1.0000  0.0000      0.0000  0.0000
  o =  1.0563  v =  0.0000  1.0000      0.0000  0.0000
atom =   6  type =  1  l = 0
 
 onsite density matrix
 
spin component  1
 
  1.0568
 
spin component  2
 
  1.0570
 
 occupancies and eigenvectors
 
  o =  1.0568  v =  1.0000  0.0000      0.0000  0.0000
  o =  1.0570  v =  0.0000  1.0000      0.0000  0.0000
atom =   7  type =  2  l = 2
 
 onsite density matrix
 
spin component  1
 
  0.9367 -0.0036  0.0044  0.0036 -0.0000
 -0.0036  0.9450 -0.0062 -0.0034  0.0044
  0.0044 -0.0062  0.3349  0.0062 -0.0000
  0.0036 -0.0034  0.0062  0.9450  0.0044
 -0.0000  0.0044 -0.0000  0.0044  0.3433
 
spin component  2
 
  0.0501  0.0018 -0.0031 -0.0018  0.0000
  0.0018  0.0411  0.0038  0.0027 -0.0027
 -0.0031  0.0038  0.4625 -0.0038  0.0000
 -0.0018  0.0027 -0.0038  0.0411 -0.0027
  0.0000 -0.0027  0.0000 -0.0027  0.4607
 
 occupancies and eigenvectors
 
  o =  0.0377  v =  0.0000  0.0000  0.0000  0.0000  0.0000 -0.2088  0.6914 -0.0139 -0.6914 -0.0000      0.0000  0.0000  0.0000  0.0000  0.0000  0.0000  0.0000  0.0000  0.0000  0.0000
  o =  0.0438  v =  0.0000  0.0000  0.0000  0.0000  0.0000 -0.0000  0.7071 -0.0000  0.7071  0.0090      0.0000  0.0000  0.0000  0.0000  0.0000  0.0000  0.0000  0.0000  0.0000  0.0000
  o =  0.0506  v =  0.0000  0.0000  0.0000  0.0000  0.0000  0.9779  0.1477  0.0046 -0.1477 -0.0000      0.0000  0.0000  0.0000  0.0000  0.0000  0.0000  0.0000  0.0000  0.0000  0.0000
  o =  0.3347  v = -0.0072  0.0101  0.9999 -0.0101  0.0000  0.0000  0.0000  0.0000  0.0000  0.0000      0.0000  0.0000  0.0000  0.0000  0.0000  0.0000  0.0000  0.0000  0.0000  0.0000
  o =  0.3433  v = -0.0000  0.0074  0.0000  0.0074 -0.9999  0.0000  0.0000  0.0000  0.0000  0.0000      0.0000  0.0000  0.0000  0.0000  0.0000  0.0000  0.0000  0.0000  0.0000  0.0000
[...]
  0.000  -0.000  -0.000  -0.000   0.000   0.000  -0.000  -0.000   0.000  -0.001  -0.002   0.001   0.000  -0.000   0.000   0.001
  0.000   0.000  -0.000  -0.000  -0.000  -0.000  -0.000   0.000   0.000  -0.000   0.001  -0.000   0.000  -0.000   0.000  -0.000
 -0.000   0.000  -0.000  -0.000  -0.000  -0.000   0.000  -0.000  -0.000   0.001   0.000   0.001  -0.003   0.000  -0.000  -0.000
 -0.000   0.001  -0.000  -0.000  -0.000   0.000  -0.000  -0.000  -0.000  -0.000   0.000  -0.001   0.001   0.000  -0.000  -0.000
  0.000  -0.002   0.000  -0.000  -0.000  -0.001   0.000  -0.000   0.001  -0.002  -0.001  -0.000   0.001  -0.000   0.001   0.000
 -0.000   0.003   0.000  -0.001  -0.000  -0.000   0.001   0.000  -0.001   0.002   0.001  -0.002   0.000   0.000  -0.001  -0.000
  0.000   0.001   0.000  -0.000  -0.000  -0.000  -0.000   0.001   0.000   0.001   0.002   0.001  -0.000  -0.000  -0.000  -0.001
 -0.000   0.000   0.000  -0.000  -0.000  -0.000   0.001   0.000  -0.000   0.002   0.003  -0.002  -0.000   0.000  -0.001  -0.001
 -0.000  -0.001  -0.000   0.000   0.000   0.001   0.000  -0.000  -0.000   0.001  -0.002   0.001  -0.000   0.000  -0.000   0.001
  0.000  -0.000  -0.000   0.000  -0.000   0.000  -0.000   0.000   0.000  -0.002  -0.000  -0.002   0.005  -0.000   0.001   0.000
  0.000  -0.002   0.000  -0.000  -0.000   0.000   0.000   0.001   0.001   0.000  -0.001   0.002  -0.001  -0.000  -0.000   0.000


------------------------ aborting loop because EDIFF is reached ----------------------------------------


 


 total charge     
 
# of ion       s       p       d       f       tot
--------------------------------------------------
    1        2.000   5.697   0.492   0.190   8.379
    2        2.000   5.697   0.492   0.190   8.379
    3        2.000   5.698   0.498   0.193   8.389
    4        2.000   5.700   0.490   0.192   8.381
    5        2.000   5.700   0.490   0.192   8.381
    6        2.001   5.698   0.498   0.193   8.389
    7        0.356   0.577   4.861   0.000   5.793
    8        0.350   0.547   4.860   0.000   5.757
    9        0.350   0.547   4.860   0.000   5.757
   10        0.398   0.578   8.339   0.000   9.315
   11        0.399   0.564   8.312   0.000   9.275
   12        0.398   0.578   8.339   0.000   9.315
   13        1.562   3.462   0.000   0.000   5.024
   14        1.562   3.462   0.000   0.000   5.024
   15        1.564   3.447   0.000   0.000   5.012
   16        1.556   3.462   0.000   0.000   5.017
   17        1.556   3.462   0.000   0.000   5.017
   18        1.564   3.447   0.000   0.000   5.012
   19        1.564   3.447   0.000   0.000   5.011
   20        1.561   3.462   0.000   0.000   5.023
   21        1.562   3.460   0.000   0.000   5.022
   22        1.561   3.462   0.000   0.000   5.023
   23        1.564   3.447   0.000   0.000   5.011
   24        1.556   3.467   0.000   0.000   5.023
   25        1.562   3.460   0.000   0.000   5.021
   26        1.561   3.462   0.000   0.000   5.023
   27        1.564   3.447   0.000   0.000   5.011
   28        1.556   3.467   0.000   0.000   5.023
   29        1.564   3.447   0.000   0.000   5.011
   30        1.561   3.462   0.000   0.000   5.023
--------------------------------------------------
tot         42.350  99.813  42.531   1.149 185.843

 


 magnetization (x)
 
# of ion       s       p       d       f       tot
--------------------------------------------------
    1        0.000   0.001   0.006   0.003   0.009
    2        0.000   0.001   0.006   0.003   0.009
    3        0.000   0.001   0.006   0.003   0.010
    4        0.000   0.001   0.009   0.004   0.015
    5        0.000   0.001   0.009   0.004   0.015
    6        0.000   0.001   0.006   0.003   0.010
    7        0.021   0.033   3.203   0.000   3.257
    8        0.023   0.023   3.278   0.000   3.323
    9        0.023   0.023   3.278   0.000   3.323
   10        0.011   0.006   1.675   0.000   1.692
   11        0.018   0.001   1.649   0.000   1.668
   12        0.011   0.006   1.675   0.000   1.692
   13        0.001  -0.024   0.000   0.000  -0.023
   14        0.001  -0.024   0.000   0.000  -0.023
   15        0.005  -0.060   0.000   0.000  -0.055
   16        0.006   0.012   0.000   0.000   0.018
   17        0.006   0.012   0.000   0.000   0.018
   18        0.005  -0.060   0.000   0.000  -0.055
   19        0.005  -0.042   0.000   0.000  -0.037
   20        0.005  -0.010   0.000   0.000  -0.005
   21        0.002  -0.010   0.000   0.000  -0.008
   22        0.005  -0.010   0.000   0.000  -0.005
   23        0.005  -0.042   0.000   0.000  -0.037
   24        0.007   0.035   0.000   0.000   0.042
   25        0.002  -0.010   0.000   0.000  -0.008
   26        0.005  -0.010   0.000   0.000  -0.005
   27        0.005  -0.042   0.000   0.000  -0.037
   28        0.007   0.035   0.000   0.000   0.042
   29        0.005  -0.042   0.000   0.000  -0.037
   30        0.005  -0.010   0.000   0.000  -0.005
--------------------------------------------------
tot          0.193  -0.207  14.800   0.019  14.806

 
    CHARGE:  cpu time    0.3302: real time    0.3309
    FORLOC:  cpu time    0.0131: real time    0.0132
    FORNL :  cpu time    2.2806: real time    2.2875
    STRESS:  cpu time    6.9456: real time    6.9664
    FORCOR:  cpu time    0.1090: real time    0.1093
    FORHAR:  cpu time    0.0234: real time    0.0235
    MIXING:  cpu time    0.0058: real time    0.0059
    OFIELD:  cpu time    0.0001: real time    0.0003

  FORCE on cell =-STRESS in cart. coord.  units (eV):
  Direction    XX          YY          ZZ          XY          YZ          ZX
  --------------------------------------------------------------------------------------
  Alpha Z   984.40906   984.40906   984.40906
  Ewald   -5175.37806 -5175.37802 -5145.48988    14.34176    13.36548   -13.36547
  Hartree  1157.61474  1157.61468  1175.85218    15.46473    13.80842   -13.80843
  E(xc)   -1046.36167 -1046.36169 -1046.12333    -0.03259    -0.01379     0.01381
  Local    -675.13200  -675.13119  -719.57622   -29.69724   -27.24879    27.24935
  n-local   416.12201   416.12878   416.74151     0.35014     0.15555    -0.17576
  augment   489.90842   489.90845   488.99634     0.07933     0.00149    -0.00176
  Kinetic  3849.20587  3849.19590  3845.50873    -0.51795    -0.01503     0.07549
  Fock        0.00000     0.00000     0.00000     0.00000     0.00000     0.00000
  -------------------------------------------------------------------------------------
  Total       0.38717     0.38717     0.31839    -0.01205     0.03333    -0.03333
  in kB       1.76827     1.76827     1.45415    -0.05504     0.15224    -0.15224
  external pressure =        1.66 kB  Pullay stress =        0.00 kB


 VOLUME and BASIS-vectors are now :
 -----------------------------------------------------------------------------
  energy-cutoff  :      520.00
  volume of cell :      350.80
      direct lattice vectors                 reciprocal lattice vectors
     3.884046139  3.884046139 -0.000000000     0.171651590  0.085811880 -0.043024474
    -3.884127936  7.768174065 -0.002675538    -0.085810087  0.085810087 -0.042964806
     0.001769091  3.882277048  7.750220551    -0.000029623  0.000029623  0.129013754

  length of vectors
     5.492870727  8.685101340  8.668217625     0.196669908  0.128735063  0.129013761


 FORCES acting on ions
    electron-ion (+dipol)            ewald-force                    non-local-force                 convergence-correction
 -----------------------------------------------------------------------------------------------
   0.323E+02 -.323E+02 -.516E+02   -.319E+02 0.319E+02 0.510E+02   -.364E+00 0.364E+00 0.567E+00   -.870E-02 0.870E-02 0.251E-01
   -.323E+02 0.323E+02 0.516E+02   0.319E+02 -.319E+02 -.510E+02   0.364E+00 -.364E+00 -.567E+00   0.870E-02 -.870E-02 -.251E-01
   -.689E+02 0.689E+02 -.779E+02   0.681E+02 -.681E+02 0.771E+02   0.787E+00 -.787E+00 0.732E+00   0.206E-01 -.206E-01 0.308E-01
   -.395E+02 0.395E+02 0.376E+02   0.390E+02 -.390E+02 -.375E+02   0.487E+00 -.487E+00 -.174E+00   0.117E-01 -.117E-01 -.159E-01
   0.395E+02 -.395E+02 -.376E+02   -.390E+02 0.390E+02 0.375E+02   -.487E+00 0.487E+00 0.174E+00   -.117E-01 0.117E-01 0.159E-01
   0.689E+02 -.689E+02 0.779E+02   -.681E+02 0.681E+02 -.771E+02   -.787E+00 0.787E+00 -.732E+00   -.206E-01 0.206E-01 -.308E-01
   0.554E-04 -.380E-05 -.111E-04   0.406E-11 -.341E-11 -.227E-11   -.230E-20 -.424E-21 0.169E-20   -.650E-07 0.119E-06 -.664E-07
   0.304E+02 -.304E+02 0.271E+02   -.301E+02 0.301E+02 -.266E+02   -.349E+00 0.349E+00 -.552E+00   -.976E-02 0.976E-02 -.624E-02
   -.304E+02 0.304E+02 -.271E+02   0.301E+02 -.301E+02 0.266E+02   0.349E+00 -.349E+00 0.552E+00   0.976E-02 -.976E-02 0.624E-02
   -.369E+02 0.369E+02 -.298E+02   0.356E+02 -.356E+02 0.282E+02   0.125E+01 -.125E+01 0.161E+01   0.296E-01 -.296E-01 0.321E-01
   0.105E-03 0.126E-04 -.188E-04   0.649E-11 -.538E-11 -.480E-11   0.202E-20 0.169E-20 0.000E+00   0.192E-06 -.152E-06 0.598E-07
   0.369E+02 -.369E+02 0.298E+02   -.356E+02 0.356E+02 -.282E+02   -.125E+01 0.125E+01 -.161E+01   -.296E-01 0.296E-01 -.321E-01
   0.133E+02 -.133E+02 -.241E+02   -.137E+02 0.137E+02 0.258E+02   0.473E+00 -.473E+00 -.160E+01   -.420E-02 0.420E-02 0.343E-02
   -.133E+02 0.133E+02 0.241E+02   0.137E+02 -.137E+02 -.258E+02   -.473E+00 0.473E+00 0.160E+01   0.420E-02 -.420E-02 -.343E-02
   -.248E+02 0.248E+02 -.539E+02   0.253E+02 -.253E+02 0.478E+02   -.542E+00 0.542E+00 0.611E+01   0.815E-02 -.815E-02 -.150E-01
   -.112E+02 0.112E+02 0.969E+01   0.113E+02 -.113E+02 -.844E+01   -.868E-01 0.868E-01 -.126E+01   0.332E-02 -.332E-02 -.130E-01
   0.112E+02 -.112E+02 -.969E+01   -.113E+02 0.113E+02 0.844E+01   0.868E-01 -.868E-01 0.126E+01   -.332E-02 0.332E-02 0.130E-01
   0.248E+02 -.248E+02 0.539E+02   -.253E+02 0.253E+02 -.478E+02   0.542E+00 -.542E+00 -.611E+01   -.815E-02 0.815E-02 0.150E-01
   0.670E+01 -.394E+02 0.109E+02   -.624E+01 0.332E+02 -.113E+02   -.459E+00 0.612E+01 0.401E+00   -.253E-02 -.228E-01 -.268E-02
   0.892E+01 -.473E+02 0.143E+02   -.866E+01 0.423E+02 -.147E+02   -.240E+00 0.506E+01 0.422E+00   -.438E-02 -.119E-01 -.559E-02
   -.138E-03 0.200E-03 0.379E-04   -.626E-11 0.208E-11 -.264E-11   -.203E-19 0.000E+00 0.000E+00   -.161E-06 0.168E-06 -.327E-07
   -.892E+01 0.473E+02 -.143E+02   0.866E+01 -.423E+02 0.147E+02   0.240E+00 -.506E+01 -.422E+00   0.438E-02 0.119E-01 0.559E-02
   -.670E+01 0.394E+02 -.109E+02   0.624E+01 -.332E+02 0.113E+02   0.459E+00 -.612E+01 -.401E+00   0.253E-02 0.228E-01 0.268E-02
   -.152E-03 0.199E-03 0.379E-04   -.865E-11 0.211E-11 -.367E-11   0.172E-21 -.136E-19 0.000E+00   0.630E-07 -.559E-07 0.651E-07
   -.127E-03 0.193E-03 0.393E-04   -.101E-11 0.456E-11 -.112E-12   0.400E-20 -.271E-19 0.000E+00   -.161E-06 0.205E-06 -.246E-07
   -.473E+02 0.892E+01 -.143E+02   0.423E+02 -.866E+01 0.147E+02   0.506E+01 -.240E+00 -.422E+00   -.119E-01 -.438E-02 0.559E-02
   -.394E+02 0.670E+01 -.109E+02   0.332E+02 -.624E+01 0.113E+02   0.612E+01 -.459E+00 -.401E+00   -.228E-01 -.253E-02 0.268E-02
   -.135E-03 0.185E-03 0.428E-04   -.778E-12 0.614E-11 0.181E-12   -.385E-20 0.271E-19 0.000E+00   0.589E-07 -.430E-07 0.642E-07
   0.394E+02 -.670E+01 0.109E+02   -.332E+02 0.624E+01 -.113E+02   -.612E+01 0.459E+00 0.401E+00   0.228E-01 0.253E-02 -.268E-02
   0.473E+02 -.892E+01 0.143E+02   -.423E+02 0.866E+01 -.147E+02   -.506E+01 0.240E+00 0.422E+00   0.119E-01 0.438E-02 -.559E-02
 -----------------------------------------------------------------------------------------------
   -.266E-02 0.465E-02 0.823E-03   0.142E-13 0.126E-12 -.515E-13   0.178E-14 0.105E-14 0.555E-16   -.591E-06 0.131E-05 0.279E-06
 
 
 POSITION                                       TOTAL-FORCE (eV/Angst)
 -----------------------------------------------------------------------------------
      0.03942     11.61271      3.82238        -0.014679      0.014679      0.010389
     -0.03866      7.80675      0.04871         0.014679     -0.014679     -0.010389
     -0.08529      7.85338      3.79129        -0.009954      0.009954     -0.032839
     -0.04776      3.93180      0.01352        -0.021473      0.021473     -0.051518
      0.04860      3.83545      3.86025         0.021473     -0.021473      0.051518
     -3.79800      7.68204      0.07981         0.009954     -0.009954      0.032839
      1.94244      5.82565      1.93689         0.000000      0.000000     -0.000000
      1.93958      5.82851      5.82254        -0.075179      0.075179     -0.033642
      1.94708      9.70506      5.80145         0.075179     -0.075179      0.033642
     -1.92376      5.80780      1.93433        -0.025588      0.025588      0.074471
     -1.94076      9.70885      5.81066         0.000000      0.000000     -0.000000
     -1.95953      9.72762      1.93676         0.025588     -0.025588     -0.074471
      1.94413      5.82397      3.85918         0.043556     -0.043556      0.079616
      1.94076      5.82733      0.01459        -0.043556      0.043556     -0.079616
      1.94740      9.70473      3.92050        -0.028396      0.028396      0.024583
     -1.92546      9.69355      7.72733         0.020513     -0.020513     -0.018190
     -1.95605      9.72414      3.89399        -0.020513      0.020513      0.018190
      1.93925      5.82884      7.70349         0.028396     -0.028396     -0.024583
     -1.95233     11.71349      5.81228        -0.002799     -0.098305      0.032670
      1.93368      3.93081      1.93261         0.021703      0.040942      0.022429
      1.94333      7.76679      5.81200         0.000000      0.000000     -0.000000
      1.95121      7.72049      1.94116        -0.021703     -0.040942     -0.022429
     -1.92918      7.70421      5.80904         0.002799      0.098305     -0.032670
     -1.94164      7.76771      1.93555         0.000000      0.000000     -0.000000
      0.00131      5.82476      5.81200         0.000000      0.000000     -0.000000
      0.04760      5.81688      1.94116         0.040942      0.021703     -0.022429
      0.06388      9.69727      5.80904        -0.098305     -0.002799     -0.032670
      0.00038      9.70973      1.93555         0.000000      0.000000     -0.000000
     -0.06135     13.60447      5.81228         0.098305      0.002799      0.032670
     -0.04676      1.95037      1.93261        -0.040942     -0.021703      0.022429
 -----------------------------------------------------------------------------------
    total drift:                               -0.002665      0.004654      0.000823


--------------------------------------------------------------------------------------------------------



  FREE ENERGIE OF THE ION-ELECTRON SYSTEM (eV)
  ---------------------------------------------------
  free  energy   TOTEN  =      -220.60082265 eV

  energy  without entropy=     -220.60082265  energy(sigma->0) =     -220.60082265
 


--------------------------------------------------------------------------------------------------------


    POTLOK:  cpu time    0.1111: real time    0.1116


--------------------------------------------------------------------------------------------------------


     LOOP+:  cpu time  200.8672: real time  201.5446
    4ORBIT:  cpu time    0.0000: real time    0.0000
 


 total charge     
 
# of ion       s       p       d       f       tot
--------------------------------------------------
    1        2.000   5.697   0.492   0.190   8.379
    2        2.000   5.697   0.492   0.190   8.379
    3        2.000   5.698   0.498   0.193   8.389
    4        2.000   5.700   0.490   0.192   8.381
    5        2.000   5.700   0.490   0.192   8.381
    6        2.001   5.698   0.498   0.193   8.389
    7        0.356   0.577   4.861   0.000   5.793
    8        0.350   0.547   4.860   0.000   5.757
    9        0.350   0.547   4.860   0.000   5.757
   10        0.398   0.578   8.339   0.000   9.315
   11        0.399   0.564   8.312   0.000   9.275
   12        0.398   0.578   8.339   0.000   9.315
   13        1.562   3.462   0.000   0.000   5.024
   14        1.562   3.462   0.000   0.000   5.024
   15        1.564   3.447   0.000   0.000   5.012
   16        1.556   3.462   0.000   0.000   5.017
   17        1.556   3.462   0.000   0.000   5.017
   18        1.564   3.447   0.000   0.000   5.012
   19        1.564   3.447   0.000   0.000   5.011
   20        1.561   3.462   0.000   0.000   5.023
   21        1.562   3.460   0.000   0.000   5.022
   22        1.561   3.462   0.000   0.000   5.023
   23        1.564   3.447   0.000   0.000   5.011
   24        1.556   3.467   0.000   0.000   5.023
   25        1.562   3.460   0.000   0.000   5.021
   26        1.561   3.462   0.000   0.000   5.023
   27        1.564   3.447   0.000   0.000   5.011
   28        1.556   3.467   0.000   0.000   5.023
   29        1.564   3.447   0.000   0.000   5.011
   30        1.561   3.462   0.000   0.000   5.023
--------------------------------------------------
tot         42.350  99.813  42.531   1.149 185.843

 


 magnetization (x)
 
# of ion       s       p       d       f       tot
--------------------------------------------------
    1        0.000   0.001   0.006   0.003   0.009
    2        0.000   0.001   0.006   0.003   0.009
    3        0.000   0.001   0.006   0.003   0.010
    4        0.000   0.001   0.009   0.004   0.015
    5        0.000   0.001   0.009   0.004   0.015
    6        0.000   0.001   0.006   0.003   0.010
    7        0.021   0.033   3.203   0.000   3.257
    8        0.023   0.023   3.278   0.000   3.323
    9        0.023   0.023   3.278   0.000   3.323
   10        0.011   0.006   1.675   0.000   1.692
   11        0.018   0.001   1.649   0.000   1.668
   12        0.011   0.006   1.675   0.000   1.692
   13        0.001  -0.024   0.000   0.000  -0.023
   14        0.001  -0.024   0.000   0.000  -0.023
   15        0.005  -0.060   0.000   0.000  -0.055
   16        0.006   0.012   0.000   0.000   0.018
   17        0.006   0.012   0.000   0.000   0.018
   18        0.005  -0.060   0.000   0.000  -0.055
   19        0.005  -0.042   0.000   0.000  -0.037
   20        0.005  -0.010   0.000   0.000  -0.005
   21        0.002  -0.010   0.000   0.000  -0.008
   22        0.005  -0.010   0.000   0.000  -0.005
   23        0.005  -0.042   0.000   0.000  -0.037
   24        0.007   0.035   0.000   0.000   0.042
   25        0.002  -0.010   0.000   0.000  -0.008
   26        0.005  -0.010   0.000   0.000  -0.005
   27        0.005  -0.042   0.000   0.000  -0.037
   28        0.007   0.035   0.000   0.000   0.042
   29        0.005  -0.042   0.000   0.000  -0.037
   30        0.005  -0.010   0.000   0.000  -0.005
--------------------------------------------------
tot          0.193  -0.207  14.800   0.019  14.806

 
 BZINTS: Fermi energy:  7.885917;225.000000 electrons
         Band energy:-327.289511;  BLOECHL correction:  0.000000

 total amount of memory used by VASP MPI-rank0    97868. kBytes
=======================================================================

   base      :      30000. kBytes
   nonlr-proj:       8459. kBytes
   fftplans  :       3594. kBytes
   grid      :      10516. kBytes
   one-center:        294. kBytes
   wavefun   :      45005. kBytes
 
  
  
 General timing and accounting informations for this job:
 ========================================================
  
                  Total CPU time used (sec):      214.820
                            User time (sec):      209.452
                          System time (sec):        5.368
                         Elapsed time (sec):      215.680
  
                   Maximum memory used (kb):      159576.
                   Average memory used (kb):           0.
  
                          Minor page faults:        50511
                          Major page faults:            0
                 Voluntary context switches:         1470
