 vasp.5.4.4.18Apr17-6-g9f103f2a35 (build Oct 03 2018 13:58:34) complex          
  
 executed on             LinuxIFC date 2019.06.04  01:00:55
 running on   40 total cores
 distrk:  each k-point on   20 cores,    2 groups
 distr:  one band on NCORES_PER_BAND=  10 cores,    2 groups


--------------------------------------------------------------------------------------------------------


 INCAR:
 POTCAR:    PAW_PBE La 06Sep2000                  
 POTCAR:    PAW_PBE Mn 06Sep2000                  
 POTCAR:    PAW_PBE Ni 02Aug2007                  
 POTCAR:    PAW_PBE O 08Apr2002                   

 ----------------------------------------------------------------------------- 
|                                                                             |
|           W    W    AA    RRRRR   N    N  II  N    N   GGGG   !!!           |
|           W    W   A  A   R    R  NN   N  II  NN   N  G    G  !!!           |
|           W    W  A    A  R    R  N N  N  II  N N  N  G       !!!           |
|           W WW W  AAAAAA  RRRRR   N  N N  II  N  N N  G  GGG   !            |
|           WW  WW  A    A  R   R   N   NN  II  N   NN  G    G                |
|           W    W  A    A  R    R  N    N  II  N    N   GGGG   !!!           |
|                                                                             |
|      You have enabled k-point parallelism (KPAR>1).                         |
|      This developmental code was originally  written by Paul Kent at ORNL,  |
|      and carefully double checked in Vienna.                                |
|      GW as well as linear response parallelism added by Martijn Marsman     |
|      and Georg Kresse.                                                      |
|      Carefully verify results versus KPAR=1.                                |
|      Report problems to Paul Kent and Vienna.                               |
|                                                                             |
 ----------------------------------------------------------------------------- 

 POTCAR:    PAW_PBE La 06Sep2000                  
   VRHFIN =La : [core=Kr4d]                                                     
   LEXCH  = PE                                                                  
   EATOM  =   865.9763 eV,   63.6475 Ry                                         
                                                                                
   TITEL  = PAW_PBE La 06Sep2000                                                
   LULTRA =        F    use ultrasoft PP ?                                      
   IUNSCR =        1    unscreen: 0-lin 1-nonlin 2-no                           
   RPACOR =    2.300    partial core radius                                     
   POMASS =  138.900; ZVAL   =   11.000    mass and valenz                      
   RCORE  =    2.800    outmost cutoff radius                                   
   RWIGS  =    2.900; RWIGS  =    1.535    wigner-seitz radius (au A)           
   ENMAX  =  219.292; ENMIN  =  164.469 eV                                      
   RCLOC  =    1.601    cutoff for local pot                                    
   LCOR   =        T    correct aug charges                                     
   LPAW   =        T    paw PP                                                  
   EAUG   =  583.575                                                            
   DEXC   =    0.000                                                            
   RMAX   =    2.853    core radius for proj-oper                               
   RAUG   =    1.300    factor for augmentation sphere                          
   RDEP   =    2.802    radius for radial grids                                 
   RDEPT  =    2.156    core radius for aug-charge                              
                                                                                
   Atomic configuration                                                         
   14 entries                                                                   
     n  l   j            E        occ.                                          
     1  0  0.50    -38741.0879   2.0000                                         
     2  0  0.50     -6166.6801   2.0000                                         
     2  1  1.50     -5526.1593   6.0000                                         
     3  0  0.50     -1319.0200   2.0000                                         
     3  1  1.50     -1114.5963   6.0000                                         
     3  2  2.50      -821.1793  10.0000                                         
     4  0  0.50      -266.3851   2.0000                                         
     4  1  1.50      -199.9276   6.0000                                         
     4  2  2.50      -103.8239  10.0000                                         
     5  0  0.50       -38.9172   2.0000                                         
     6  0  0.50        -3.6792   2.0000                                         
     5  1  1.50       -22.3948   6.0000                                         
     5  2  2.50        -3.0911   0.9999                                         
     4  3  2.50        -4.3603   0.0001                                         
   Description                                                                  
     l       E           TYP  RCUT    TYP  RCUT                                 
     0    -38.9171645     23  2.800                                             
     0     -3.6792381     23  2.800                                             
     1    -22.3948300     23  2.500                                             
     1     27.2116520     23  2.500                                             
     2     -3.0910934     23  2.500                                             
     2      1.0119135     23  2.500                                             
     3     -4.3602911     23  2.800                                             
     3     -5.7208737     23  2.800                                             
  local pseudopotential read in
  partial core-charges read in
  partial kinetic energy density read in
  atomic valenz-charges read in
  non local Contribution for L=           0  read in
    real space projection operators read in
  non local Contribution for L=           0  read in
    real space projection operators read in
  non local Contribution for L=           1  read in
    real space projection operators read in
  non local Contribution for L=           1  read in
    real space projection operators read in
  non local Contribution for L=           2  read in
    real space projection operators read in
  non local Contribution for L=           2  read in
    real space projection operators read in
  non local Contribution for L=           3  read in
    real space projection operators read in
  non local Contribution for L=           3  read in
    real space projection operators read in
    PAW grid and wavefunctions read in
 
   number of l-projection  operators is LMAX  =           8
   number of lm-projection operators is LMMAX =          32
 
 POTCAR:    PAW_PBE Mn 06Sep2000                  
   VRHFIN =Mn: d6 s1                                                            
   LEXCH  = PE                                                                  
   EATOM  =   416.7541 eV,   30.6306 Ry                                         
                                                                                
   TITEL  = PAW_PBE Mn 06Sep2000                                                
   LULTRA =        F    use ultrasoft PP ?                                      
   IUNSCR =        1    unscreen: 0-lin 1-nonlin 2-no                           
   RPACOR =    2.000    partial core radius                                     
   POMASS =   54.938; ZVAL   =    7.000    mass and valenz                      
   RCORE  =    2.300    outmost cutoff radius                                   
   RWIGS  =    2.500; RWIGS  =    1.323    wigner-seitz radius (au A)           
   ENMAX  =  269.864; ENMIN  =  202.398 eV                                      
   RCLOC  =    1.725    cutoff for local pot                                    
   LCOR   =        T    correct aug charges                                     
   LPAW   =        T    paw PP                                                  
   EAUG   =  500.711                                                            
   DEXC   =    0.000                                                            
   RMAX   =    2.343    core radius for proj-oper                               
   RAUG   =    1.300    factor for augmentation sphere                          
   RDEP   =    2.338    radius for radial grids                                 
   RDEPT  =    1.911    core radius for aug-charge                              
                                                                                
   Atomic configuration                                                         
    9 entries                                                                   
     n  l   j            E        occ.                                          
     1  0  0.50     -6424.8288   2.0000                                         
     2  0  0.50      -739.1154   2.0000                                         
     2  1  1.50      -625.3949   6.0000                                         
     3  0  0.50       -81.6100   2.0000                                         
     3  1  1.50       -50.4667   6.0000                                         
     3  2  2.50        -3.3745   6.0000                                         
     4  0  0.50        -4.1331   1.0000                                         
     4  1  0.50        -4.0817   0.0000                                         
     4  3  2.50        -1.3606   0.0000                                         
   Description                                                                  
     l       E           TYP  RCUT    TYP  RCUT                                 
     2     -3.3744664     23  2.300                                             
     2     -4.7350490     23  2.300                                             
     0     -4.1331408     23  2.300                                             
     0      7.6656614     23  2.300                                             
     1     -2.7211652     23  2.300                                             
     1     20.4087390     23  2.300                                             
  local pseudopotential read in
  partial core-charges read in
  partial kinetic energy density read in
  atomic valenz-charges read in
  non local Contribution for L=           2  read in
    real space projection operators read in
  non local Contribution for L=           2  read in
    real space projection operators read in
  non local Contribution for L=           0  read in
    real space projection operators read in
  non local Contribution for L=           0  read in
    real space projection operators read in
  non local Contribution for L=           1  read in
    real space projection operators read in
  non local Contribution for L=           1  read in
    real space projection operators read in
    PAW grid and wavefunctions read in
 
   number of l-projection  operators is LMAX  =           6
   number of lm-projection operators is LMMAX =          18
 
 POTCAR:    PAW_PBE Ni 02Aug2007                  
   VRHFIN =Ni:                                                                  
   LEXCH  = PE                                                                  
   EATOM  =  1077.6739 eV,   79.2068 Ry                                         
                                                                                
   TITEL  = PAW_PBE Ni 02Aug2007                                                
   LULTRA =        F    use ultrasoft PP ?                                      
   IUNSCR =        1    unscreen: 0-lin 1-nonlin 2-no                           
   RPACOR =    2.000    partial core radius                                     
   POMASS =   58.690; ZVAL   =   10.000    mass and valenz                      
   RCORE  =    2.300    outmost cutoff radius                                   
   RWIGS  =    2.430; RWIGS  =    1.286    wigner-seitz radius (au A)           
   ENMAX  =  269.532; ENMIN  =  202.149 eV                                      
   RCLOC  =    1.201    cutoff for local pot                                    
   LCOR   =        T    correct aug charges                                     
   LPAW   =        T    paw PP                                                  
   EAUG   =  544.565                                                            
   DEXC   =    0.000                                                            
   RMAX   =    2.357    core radius for proj-oper                               
   RAUG   =    1.300    factor for augmentation sphere                          
   RDEP   =    2.390    radius for radial grids                                 
   RDEPT  =    1.838    core radius for aug-charge                              
                                                                                
   Atomic configuration                                                         
    9 entries                                                                   
     n  l   j            E        occ.                                          
     1  0  0.50     -8206.4253   2.0000                                         
     2  0  0.50      -976.1748   2.0000                                         
     2  1  1.50      -839.0571   6.0000                                         
     3  0  0.50      -105.9991   2.0000                                         
     3  1  1.50       -66.4603   6.0000                                         
     3  2  2.50        -4.6458   9.0000                                         
     4  0  0.50        -4.4926   1.0000                                         
     4  1  1.50        -4.0817   0.0000                                         
     4  3  2.50        -1.3606   0.0000                                         
   Description                                                                  
     l       E           TYP  RCUT    TYP  RCUT                                 
     2     -4.6457903     23  2.300                                             
     2     -6.0063729     23  2.300                                             
     0     -4.4925590     23  2.300                                             
     0      5.0102601     23  2.300                                             
     1     -2.7211652     23  2.300                                             
     1     16.5183231     23  2.300                                             
  local pseudopotential read in
  partial core-charges read in
  partial kinetic energy density read in
  atomic valenz-charges read in
  non local Contribution for L=           2  read in
    real space projection operators read in
  non local Contribution for L=           2  read in
    real space projection operators read in
  non local Contribution for L=           0  read in
    real space projection operators read in
  non local Contribution for L=           0  read in
    real space projection operators read in
  non local Contribution for L=           1  read in
    real space projection operators read in
  non local Contribution for L=           1  read in
    real space projection operators read in
    PAW grid and wavefunctions read in
 
   number of l-projection  operators is LMAX  =           6
   number of lm-projection operators is LMMAX =          18
 
 POTCAR:    PAW_PBE O 08Apr2002                   
   VRHFIN =O: s2p4                                                              
   LEXCH  = PE                                                                  
   EATOM  =   432.3788 eV,   31.7789 Ry                                         
                                                                                
   TITEL  = PAW_PBE O 08Apr2002                                                 
   LULTRA =        F    use ultrasoft PP ?                                      
   IUNSCR =        1    unscreen: 0-lin 1-nonlin 2-no                           
   RPACOR =    1.200    partial core radius                                     
   POMASS =   16.000; ZVAL   =    6.000    mass and valenz                      
   RCORE  =    1.520    outmost cutoff radius                                   
   RWIGS  =    1.550; RWIGS  =    0.820    wigner-seitz radius (au A)           
   ENMAX  =  400.000; ENMIN  =  300.000 eV                                      
   ICORE  =        2    local potential                                         
   LCOR   =        T    correct aug charges                                     
   LPAW   =        T    paw PP                                                  
   EAUG   =  605.392                                                            
   DEXC   =    0.000                                                            
   RMAX   =    1.553    core radius for proj-oper                               
   RAUG   =    1.300    factor for augmentation sphere                          
   RDEP   =    1.550    radius for radial grids                                 
   RDEPT  =    1.329    core radius for aug-charge                              
                                                                                
   Atomic configuration                                                         
    4 entries                                                                   
     n  l   j            E        occ.                                          
     1  0  0.50      -514.6923   2.0000                                         
     2  0  0.50       -23.9615   2.0000                                         
     2  1  0.50        -9.0305   4.0000                                         
     3  2  1.50        -9.5241   0.0000                                         
   Description                                                                  
     l       E           TYP  RCUT    TYP  RCUT                                 
     0    -23.9615318     23  1.200                                             
     0     -9.5240782     23  1.200                                             
     1     -9.0304911     23  1.520                                             
     1      8.1634956     23  1.520                                             
     2     -9.5240782      7  1.500                                             
  local pseudopotential read in
  partial core-charges read in
  partial kinetic energy density read in
  kinetic energy density of atom read in
  atomic valenz-charges read in
  non local Contribution for L=           0  read in
    real space projection operators read in
  non local Contribution for L=           0  read in
    real space projection operators read in
  non local Contribution for L=           1  read in
    real space projection operators read in
  non local Contribution for L=           1  read in
    real space projection operators read in
    PAW grid and wavefunctions read in
 
   number of l-projection  operators is LMAX  =           4
   number of lm-projection operators is LMMAX =           8
 
 Optimization of the real space projectors (new method)

 maximal supplied QI-value         = 13.42
 optimisation between [QCUT,QGAM] = [ 11.67, 23.35] = [ 38.16,152.62] Ry 
 Optimized for a Real-space Cutoff    1.63 Angstroem

   l    n(q)    QCUT    max X(q) W(low)/X(q) W(high)/X(q)  e(spline) 
   0     11    11.673    13.882    0.27E-04    0.79E-05    0.11E-06
   0     11    11.673    12.184    0.39E-04    0.13E-04    0.19E-06
   1     11    11.673     4.523    0.73E-05    0.76E-05    0.12E-06
   1     11    11.673     4.424    0.87E-05    0.13E-04    0.19E-06
   2     10    11.673    52.481    0.65E-04    0.36E-04    0.18E-06
   2     10    11.673    38.501    0.61E-04    0.33E-04    0.17E-06
   3     10    11.673    65.631    0.17E-03    0.14E-03    0.37E-06
   3     10    11.673    56.854    0.17E-03    0.14E-03    0.37E-06
 Optimization of the real space projectors (new method)

 maximal supplied QI-value         = 16.25
 optimisation between [QCUT,QGAM] = [ 11.54, 23.24] = [ 37.28,151.24] Ry 
 Optimized for a Real-space Cutoff    1.53 Angstroem

   l    n(q)    QCUT    max X(q) W(low)/X(q) W(high)/X(q)  e(spline) 
   2     10    11.539   110.144    0.12E-03    0.13E-03    0.25E-06
   2     10    11.539   103.200    0.12E-03    0.13E-03    0.25E-06
   0     11    11.539    68.437    0.46E-04    0.21E-04    0.32E-06
   0     11    11.539    33.971    0.37E-04    0.19E-04    0.29E-06
   1     10    11.539    17.065    0.51E-04    0.22E-04    0.13E-06
   1     10    11.539    12.540    0.41E-04    0.18E-04    0.11E-06
 Optimization of the real space projectors (new method)

 maximal supplied QI-value         = 16.25
 optimisation between [QCUT,QGAM] = [ 11.54, 23.24] = [ 37.28,151.24] Ry 
 Optimized for a Real-space Cutoff    1.45 Angstroem

   l    n(q)    QCUT    max X(q) W(low)/X(q) W(high)/X(q)  e(spline) 
   2      9    11.539    60.317    0.19E-03    0.47E-04    0.16E-06
   2      9    11.539    55.921    0.19E-03    0.48E-04    0.16E-06
   0     10    11.539    51.690    0.80E-04    0.50E-04    0.24E-06
   0     10    11.539    30.015    0.73E-04    0.45E-04    0.22E-06
   1     10    11.539    18.849    0.87E-04    0.16E-03    0.71E-07
   1     10    11.539    14.624    0.73E-04    0.13E-03    0.64E-07
 Optimization of the real space projectors (new method)

 maximal supplied QI-value         = 24.76
 optimisation between [QCUT,QGAM] = [ 11.64, 23.27] = [ 37.91,151.63] Ry 
 Optimized for a Real-space Cutoff    1.14 Angstroem

   l    n(q)    QCUT    max X(q) W(low)/X(q) W(high)/X(q)  e(spline) 
   0      8    11.635    20.381    0.10E-03    0.33E-03    0.24E-06
   0      8    11.635    15.268    0.11E-03    0.35E-03    0.26E-06
   1      7    11.635     5.964    0.24E-03    0.31E-03    0.30E-06
   1      7    11.635     5.382    0.22E-03    0.25E-03    0.26E-06
  PAW_PBE La 06Sep2000                  :
 energy of atom  1       EATOM= -865.9763
 kinetic energy error for atom=    0.0009 (will be added to EATOM!!)
  PAW_PBE Mn 06Sep2000                  :
 energy of atom  2       EATOM= -416.7541
 kinetic energy error for atom=    0.0024 (will be added to EATOM!!)
  PAW_PBE Ni 02Aug2007                  :
 energy of atom  3       EATOM=-1077.6739
 kinetic energy error for atom=    0.0030 (will be added to EATOM!!)
  PAW_PBE O 08Apr2002                   :
 energy of atom  4       EATOM= -432.3788
 kinetic energy error for atom=    0.0208 (will be added to EATOM!!)
 
 
 POSCAR: SCEL4_1_4_1_1_0_0/0                     
  positions in direct lattice
  velocities in cartesian coordinates
 exchange correlation table for  LEXCH =        8
   RHO(1)=    0.500       N(1)  =     2000
   RHO(2)=  100.500       N(2)  =     4000
 


--------------------------------------------------------------------------------------------------------


 ion  position               nearest neighbor table
   1  0.000  0.500  0.238-  20 2.63  16 2.70  11 2.70  11 2.70  16 2.70  19 2.78  19 2.78   8 3.28
                             8 3.28   5 3.39   5 3.39   5 3.39   5 3.39
   2  0.000  0.000  0.500-   9 2.76  10 2.76   9 2.76  10 2.76  14 2.76  15 2.76  14 2.76  15 2.76
                            17 2.77  19 2.77  18 2.77  18 2.77   5 3.39   7 3.39   5 3.39   7 3.39
   3  0.000  0.500  0.762-  20 2.63  13 2.70  12 2.70  12 2.70  13 2.70  17 2.78  17 2.78   8 3.28
                             8 3.28   7 3.39   7 3.39   7 3.39   7 3.39
   4  0.000  0.000  0.000-  17 2.77  19 2.77  20 2.77  20 2.77  11 2.77  12 2.77  13 2.77  16 2.77
                            11 2.77  12 2.77  13 2.77  16 2.77   5 3.39   7 3.39   5 3.39   7 3.39
   5  0.500  0.000  0.250-  10 1.92  15 1.92  11 1.92  16 1.92  19 1.96  19 1.96   2 3.39   2 3.39
                             4 3.39   4 3.39   1 3.39   1 3.39   1 3.39   1 3.39
   6  0.500  0.500  0.500-  18 1.96  18 1.96  14 2.00  15 2.00   9 2.00  10 2.00   2 3.39   2 3.39
                             2 3.39   2 3.39
   7  0.500  0.000  0.750-   9 1.92  14 1.92  13 1.92  12 1.92  17 1.96  17 1.96   2 3.39   2 3.39
                             4 3.39   4 3.39   3 3.39   3 3.39   3 3.39   3 3.39
   8  0.500  0.500  0.000-  20 1.96  20 1.96  13 2.00  16 2.00  11 2.00  12 2.00   1 3.28   1 3.28
                             3 3.28   3 3.28
   9  0.500  0.757  0.626-   7 1.92   6 2.00   2 2.76   2 2.76
  10  0.500  0.243  0.374-   5 1.92   6 2.00   2 2.76   2 2.76
  11  0.500  0.754  0.128-   5 1.92   8 2.00   1 2.70   1 2.70   4 2.77   4 2.77
  12  0.500  0.246  0.872-   7 1.92   8 2.00   3 2.70   3 2.70   4 2.77   4 2.77
  13  0.500  0.754  0.872-   7 1.92   8 2.00   3 2.70   3 2.70   4 2.77   4 2.77
  14  0.500  0.243  0.626-   7 1.92   6 2.00   2 2.76   2 2.76
  15  0.500  0.757  0.374-   5 1.92   6 2.00   2 2.76   2 2.76
  16  0.500  0.246  0.128-   5 1.92   8 2.00   1 2.70   1 2.70   4 2.77   4 2.77
  17  0.000  0.000  0.750-   7 1.96   7 1.96   4 2.77   2 2.77   3 2.78   3 2.78
  18  0.000  0.500  0.500-   6 1.96   6 1.96   2 2.77   2 2.77
  19  0.000  0.000  0.250-   5 1.96   5 1.96   4 2.77   2 2.77   1 2.78   1 2.78
  20  0.000  0.500  0.000-   8 1.96   8 1.96   1 2.63   3 2.63   4 2.77   4 2.77
 
  LATTYP: Found a simple orthorhombic cell.
 ALAT       =     3.9100008804
 B/A-ratio  =     1.4178313212
 C/A-ratio  =     2.8334493936
  
  Lattice vectors:
  
 A1 = (   3.9100008804,   0.0000000000,   0.0000000000)
 A2 = (   0.0000000000,   3.9200032171,   3.9200032171)
 A3 = (   0.0000000000,  -7.8338872701,   7.8338872701)


Analysis of symmetry for initial positions (statically):
=====================================================================
 Subroutine PRICEL returns:
 Original cell was already a primitive cell.
 

 Routine SETGRP: Setting up the symmetry group for a 
 simple orthorhombic supercell.


 Subroutine GETGRP returns: Found  8 space group operations
 (whereof  8 operations were pure point group operations)
 out of a pool of  8 trial point group operations.


The static configuration has the point symmetry D_2h.


Analysis of symmetry for dynamics (positions and initial velocities):
=====================================================================
 Subroutine PRICEL returns:
 Original cell was already a primitive cell.
 

 Routine SETGRP: Setting up the symmetry group for a 
 simple orthorhombic supercell.


 Subroutine GETGRP returns: Found  8 space group operations
 (whereof  8 operations were pure point group operations)
 out of a pool of  8 trial point group operations.


The dynamic configuration has the point symmetry D_2h.


Analysis of structural, dynamic, and magnetic symmetry:
=====================================================================
 Subroutine PRICEL returns:
 Original cell was already a primitive cell.
 

 Routine SETGRP: Setting up the symmetry group for a 
 simple orthorhombic supercell.


 Subroutine GETGRP returns: Found  8 space group operations
 (whereof  8 operations were pure point group operations)
 out of a pool of  8 trial point group operations.


The magnetic configuration has the point symmetry D_2h.


 Subroutine INISYM returns: Found  8 space group operations
 (whereof  8 operations are pure point group operations),
 and found     1 'primitive' translations

 
 
 KPOINTS: Automatic mesh                          

Automatic generation of k-mesh.
 generate k-points for:    5    4    2
Space group operators:
 irot       det(A)        alpha          n_x          n_y          n_z        tau_x        tau_y        tau_z
    1     1.000000     0.000000     1.000000     0.000000     0.000000     0.000000     0.000000     0.000000
    2    -1.000000     0.000000     1.000000     0.000000     0.000000     0.000000     0.000000     0.000000
    3     1.000000   180.000000     0.000000    -0.707107     0.707107     0.000000     0.000000     0.000000
    4    -1.000000   180.000000     0.000000    -0.707107     0.707107     0.000000     0.000000     0.000000
    5     1.000000   180.000000     0.000000     0.707107     0.707107     0.000000     0.000000     0.000000
    6    -1.000000   180.000000     0.000000     0.707107     0.707107     0.000000     0.000000     0.000000
    7     1.000000   180.000000     1.000000     0.000000     0.000000     0.000000     0.000000     0.000000
    8    -1.000000   180.000000     1.000000     0.000000     0.000000     0.000000     0.000000     0.000000
 
 Subroutine IBZKPT returns following result:
 ===========================================
 
 Found     18 irreducible k-points:
 
 Following reciprocal coordinates:
            Coordinates               Weight
  0.000000  0.000000  0.000000      1.000000
  0.200000  0.000000  0.000000      2.000000
  0.400000  0.000000  0.000000      2.000000
  0.000000  0.250000  0.000000      2.000000
  0.200000  0.250000  0.000000      4.000000
  0.400000  0.250000  0.000000      4.000000
  0.000000  0.500000  0.000000      1.000000
  0.200000  0.500000  0.000000      2.000000
  0.400000  0.500000  0.000000      2.000000
  0.000000  0.000000  0.500000      1.000000
  0.200000  0.000000  0.500000      2.000000
  0.400000  0.000000  0.500000      2.000000
  0.000000  0.250000  0.500000      2.000000
  0.200000  0.250000  0.500000      4.000000
  0.400000  0.250000  0.500000      4.000000
  0.000000  0.500000  0.500000      1.000000
  0.200000  0.500000  0.500000      2.000000
  0.400000  0.500000  0.500000      2.000000
 
 Following cartesian coordinates:
            Coordinates               Weight
  0.000000  0.000000  0.000000      1.000000
  0.051151  0.000000  0.000000      2.000000
  0.102302  0.000000  0.000000      2.000000
  0.000000  0.031888  0.031888      2.000000
  0.051151  0.031888  0.031888      4.000000
  0.102302  0.031888  0.031888      4.000000
  0.000000  0.063775  0.063775      1.000000
  0.051151  0.063775  0.063775      2.000000
  0.102302  0.063775  0.063775      2.000000
  0.000000 -0.031913  0.031913      1.000000
  0.051151 -0.031913  0.031913      2.000000
  0.102302 -0.031913  0.031913      2.000000
  0.000000 -0.000025  0.063800      2.000000
  0.051151 -0.000025  0.063800      4.000000
  0.102302 -0.000025  0.063800      4.000000
  0.000000  0.031863  0.095688      1.000000
  0.051151  0.031863  0.095688      2.000000
  0.102302  0.031863  0.095688      2.000000
 
 TETIRR: Found    120 inequivalent tetrahedra from      240


--------------------------------------------------------------------------------------------------------




 Dimension of arrays:
   k-points           NKPTS =     18   k-points in BZ     NKDIM =     18   number of bands    NBANDS=     96
   number of dos      NEDOS =    301   number of ions     NIONS =     20
   non local maximal  LDIM  =      8   non local SUM 2l+1 LMDIM =     32
   total plane-waves  NPLWV = 105840
   max r-space proj   IRMAX =   8004   max aug-charges    IRDMAX=  23227
   dimension x,y,z NGX =    30 NGY =   42 NGZ =   84
   dimension x,y,z NGXF=    60 NGYF=   84 NGZF=  168
   support grid    NGXF=    60 NGYF=   84 NGZF=  168
   ions per type =               4   3   1  12
   NGX,Y,Z   is equivalent  to a cutoff of  12.76, 12.60, 12.60 a.u.
   NGXF,Y,Z  is equivalent  to a cutoff of  25.51, 25.19, 25.21 a.u.

 SYSTEM =  final                                   
 POSCAR =  SCEL4_1_4_1_1_0_0/0                     

 Startparameter for this run:
   NWRITE =      2    write-flag & timer
   PREC   = accura    normal or accurate (medium, high low for compatibility)
   ISTART =      0    job   : 0-new  1-cont  2-samecut
   ICHARG =      1    charge: 1-file 2-atom 10-const
   ISPIN  =      2    spin polarized calculation?
   LNONCOLLINEAR =      F non collinear calculations
   LSORBIT =      F    spin-orbit coupling
   INIWAV =      1    electr: 0-lowe 1-rand  2-diag
   LASPH  =      F    aspherical Exc in radial PAW
   METAGGA=      F    non-selfconsistent MetaGGA calc.

 Electronic Relaxation 1
   ENCUT  =  520.0 eV  38.22 Ry    6.18 a.u.   7.27 10.31 20.60*2*pi/ulx,y,z
   ENINI  =  520.0     initial cutoff
   ENAUG  =  605.4 eV  augmentation charge cutoff
   NELM   =    100;   NELMIN=  2; NELMDL= -5     # of ELM steps 
   EDIFF  = 0.1E-02   stopping-criterion for ELM
   LREAL  =      T    real-space projection
   NLSPLINE    = F    spline interpolate recip. space projectors
   LCOMPAT=      F    compatible to vasp.4.4
   GGA_COMPAT  = T    GGA compatible to vasp.4.4-vasp.4.6
   LMAXPAW     = -100 max onsite density
   LMAXMIX     =    6 max onsite mixed and CHGCAR
   VOSKOWN=      0    Vosko Wilk Nusair interpolation
   ROPT   =   -0.00025  -0.00025  -0.00025  -0.00025
 Ionic relaxation
   EDIFFG = 0.1E-01   stopping-criterion for IOM
   NSW    =      0    number of steps for IOM
   NBLOCK =      1;   KBLOCK =      1    inner block; outer block 
   IBRION =     -1    ionic relax: 0-MD 1-quasi-New 2-CG
   NFREE  =      0    steps in history (QN), initial steepest desc. (CG)
   ISIF   =      2    stress and relaxation
   IWAVPR =     10    prediction:  0-non 1-charg 2-wave 3-comb
   ISYM   =      2    0-nonsym 1-usesym 2-fastsym
   LCORR  =      T    Harris-Foulkes like correction to forces

   POTIM  = 0.5000    time-step for ionic-motion
   TEIN   =    0.0    initial temperature
   TEBEG  =    0.0;   TEEND  =   0.0 temperature during run
   SMASS  =  -3.00    Nose mass-parameter (am)
   estimated Nose-frequenzy (Omega)   =  0.10E-29 period in steps =****** mass=  -0.349E-27a.u.
   SCALEE = 1.0000    scale energy and forces
   NPACO  =    256;   APACO  = 16.0  distance and # of slots for P.C.
   PSTRESS=    0.0 pullay stress

  Mass of Ions in am
   POMASS = 138.90 54.94 58.69 16.00
  Ionic Valenz
   ZVAL   =  11.00  7.00 10.00  6.00
  Atomic Wigner-Seitz radii
   RWIGS  =  -1.00 -1.00 -1.00 -1.00
  virtual crystal weights 
   VCA    =   1.00  1.00  1.00  1.00
   NELECT =     147.0000    total number of electrons
   NUPDOWN=      -1.0000    fix difference up-down

 DOS related values:
   EMIN   =  10.00;   EMAX   =-10.00  energy-range for DOS
   EFERMI =   0.00
   ISMEAR =    -5;   SIGMA  =   0.05  broadening in eV -4-tet -1-fermi 0-gaus

 Electronic relaxation 2 (details)
   IALGO  =     68    algorithm
   LDIAG  =      T    sub-space diagonalisation (order eigenvalues)
   LSUBROT=      F    optimize rotation matrix (better conditioning)
   TURBO    =      0    0=normal 1=particle mesh
   IRESTART =      0    0=no restart 2=restart with 2 vectors
   NREBOOT  =      0    no. of reboots
   NMIN     =      0    reboot dimension
   EREF     =   0.00    reference energy to select bands
   IMIX   =      4    mixing-type and parameters
     AMIX     =   0.40;   BMIX     =  1.00
     AMIX_MAG =   1.60;   BMIX_MAG =  1.00
     AMIN     =   0.10
     WC   =   100.;   INIMIX=   1;  MIXPRE=   1;  MAXMIX= -45

 Intra band minimization:
   WEIMIN = 0.0000     energy-eigenvalue tresh-hold
   EBREAK =  0.26E-05  absolut break condition
   DEPER  =   0.30     relativ break condition  

   TIME   =   0.40     timestep for ELM

  volume/ion in A,a.u.               =      12.01        81.03
  Fermi-wavevector in a.u.,A,eV,Ry     =   1.390029  2.626773 26.288899  1.932180
  Thomas-Fermi vector in A             =   2.514003
 
 Write flags
   LWAVE        =      F    write WAVECAR
   LDOWNSAMPLE  =      F    k-point downsampling of WAVECAR
   LCHARG       =      T    write CHGCAR
   LVTOT        =      F    write LOCPOT, total local potential
   LVHAR        =      F    write LOCPOT, Hartree potential only
   LELF         =      F    write electronic localiz. function (ELF)
   LORBIT       =     11    0 simple, 1 ext, 2 COOP (PROOUT), +10 PAW based schemes


 Dipole corrections
   LMONO  =      F    monopole corrections only (constant potential shift)
   LDIPOL =      F    correct potential (dipole corrections)
   IDIPOL =      0    1-x, 2-y, 3-z, 4-all directions 
   EPSILON=  1.0000000 bulk dielectric constant

 LDA+U is selected, type is set to LDAUTYPE =  2
   angular momentum for each species LDAUL =     0    2    2    0
   U (eV)           for each species LDAUU =   0.0  3.9  6.2  0.0
   J (eV)           for each species LDAUJ =   0.0  0.0  0.0  0.0
 Exchange correlation treatment:
   GGA     =    --    GGA type
   LEXCH   =     8    internal setting for exchange type
   VOSKOWN=      0    Vosko Wilk Nusair interpolation
   LHFCALC =     F    Hartree Fock is set to
   LHFONE  =     F    Hartree Fock one center treatment
   AEXX    =    0.0000 exact exchange contribution

 Linear response parameters
   LEPSILON=     F    determine dielectric tensor
   LRPA    =     F    only Hartree local field effects (RPA)
   LNABLA  =     F    use nabla operator in PAW spheres
   LVEL    =     F    velocity operator in full k-point grid
   LINTERFAST=   F  fast interpolation
   KINTER  =     0    interpolate to denser k-point grid
   CSHIFT  =0.1000    complex shift for real part using Kramers Kronig
   OMEGAMAX=  -1.0    maximum frequency
   DEG_THRESHOLD= 0.2000000E-02 threshold for treating states as degnerate
   RTIME   =   -0.100 relaxation time in fs
  (WPLASMAI=    0.000 imaginary part of plasma frequency in eV, 0.658/RTIME)
   DFIELD  = 0.0000000 0.0000000 0.0000000 field for delta impulse in time
 
 Orbital magnetization related:
   ORBITALMAG=     F  switch on orbital magnetization
   LCHIMAG   =     F  perturbation theory with respect to B field
   DQ        =  0.001000  dq finite difference perturbation B field
   LLRAUG    =     F  two centre corrections for induced B field



--------------------------------------------------------------------------------------------------------


 Static calculation
 charge density and potential will be updated during run
 spin polarized calculation
 RMM-DIIS sequential band-by-band and
  variant of blocked Davidson during initial phase
 perform sub-space diagonalisation
    before iterative eigenvector-optimisation
 modified Broyden-mixing scheme, WC =      100.0
 initial mixing is a Kerker type mixing with AMIX =  0.4000 and BMIX =      1.0000
 Hartree-type preconditioning will be used
 using additional bands           22
 real space projection scheme for non local part
 use partial core corrections
 calculate Harris-corrections to forces 
   (improved forces if not selfconsistent)
 use gradient corrections 
 use of overlap-Matrix (Vanderbilt PP)
 Fermi weights with tetrahedron method with Bloechl corrections


--------------------------------------------------------------------------------------------------------


  energy-cutoff  :      520.00
  volume of cell :      240.14
      direct lattice vectors                 reciprocal lattice vectors
     3.910000880  0.000000000  0.000000000     0.255754418  0.000000000  0.000000000
     0.000000000  3.920003217  3.920003217     0.000000000  0.127550916  0.127550916
     0.000000000 -7.833887270  7.833887270     0.000000000 -0.063825274  0.063825274

  length of vectors
     3.910000880  5.543721714 11.078789623     0.255754418  0.180384235  0.090262568


 
 k-points in units of 2pi/SCALE and weight: Automatic mesh                          
   0.00000000  0.00000000  0.00000000       0.025
   0.05115088  0.00000000  0.00000000       0.050
   0.10230177  0.00000000  0.00000000       0.050
   0.00000000  0.03188773  0.03188773       0.050
   0.05115088  0.03188773  0.03188773       0.100
   0.10230177  0.03188773  0.03188773       0.100
   0.00000000  0.06377546  0.06377546       0.025
   0.05115088  0.06377546  0.06377546       0.050
   0.10230177  0.06377546  0.06377546       0.050
   0.00000000 -0.03191264  0.03191264       0.025
   0.05115088 -0.03191264  0.03191264       0.050
   0.10230177 -0.03191264  0.03191264       0.050
   0.00000000 -0.00002491  0.06380037       0.050
   0.05115088 -0.00002491  0.06380037       0.100
   0.10230177 -0.00002491  0.06380037       0.100
   0.00000000  0.03186282  0.09568809       0.025
   0.05115088  0.03186282  0.09568809       0.050
   0.10230177  0.03186282  0.09568809       0.050
 
 k-points in reciprocal lattice and weights: Automatic mesh                          
   0.00000000  0.00000000  0.00000000       0.025
   0.20000000  0.00000000  0.00000000       0.050
   0.40000000  0.00000000  0.00000000       0.050
   0.00000000  0.25000000  0.00000000       0.050
   0.20000000  0.25000000  0.00000000       0.100
   0.40000000  0.25000000  0.00000000       0.100
   0.00000000  0.50000000  0.00000000       0.025
   0.20000000  0.50000000  0.00000000       0.050
   0.40000000  0.50000000  0.00000000       0.050
   0.00000000  0.00000000  0.50000000       0.025
   0.20000000  0.00000000  0.50000000       0.050
   0.40000000  0.00000000  0.50000000       0.050
   0.00000000  0.25000000  0.50000000       0.050
   0.20000000  0.25000000  0.50000000       0.100
   0.40000000  0.25000000  0.50000000       0.100
   0.00000000  0.50000000  0.50000000       0.025
   0.20000000  0.50000000  0.50000000       0.050
   0.40000000  0.50000000  0.50000000       0.050
 
 position of ions in fractional coordinates (direct lattice) 
   0.00000000  0.50000000  0.23768086
   0.00000000  0.00000000  0.50000000
   0.00000000  0.50000000  0.76231914
   0.00000000  0.00000000  0.00000000
   0.50000000  0.00000000  0.25036566
   0.50000000  0.50000000  0.50000000
   0.50000000  0.00000000  0.74963434
   0.50000000  0.50000000  0.00000000
   0.50000000  0.75654441  0.62643437
   0.50000000  0.24345559  0.37356563
   0.50000000  0.75366572  0.12800210
   0.50000000  0.24633428  0.87199790
   0.50000000  0.75366572  0.87199790
   0.50000000  0.24345559  0.62643437
   0.50000000  0.75654441  0.37356563
   0.50000000  0.24633428  0.12800210
   0.00000000  0.00000000  0.75008533
   0.00000000  0.50000000  0.50000000
   0.00000000  0.00000000  0.24991467
   0.00000000  0.50000000  0.00000000
 
 position of ions in cartesian coordinates  (Angst):
   0.00000000  0.09803657  3.82196664
   0.00000000 -3.91694364  3.91694364
   0.00000000 -4.01192063  7.93192384
   0.00000000  0.00000000  0.00000000
   1.95500044 -1.96133637  1.96133637
   1.95500044 -1.95694203  5.87694524
   1.95500044 -5.87255090  5.87255090
   1.95500044  1.96000161  1.96000161
   1.95500044 -1.94175967  7.87307272
   1.95500044 -1.97212438  3.88081776
   1.95500044  1.95161802  3.95712609
   1.95500044 -5.86550207  7.79676440
   1.95500044 -3.87676118  9.78550529
   1.95500044 -3.95306951  5.86176289
   1.95500044  0.03918545  5.89212760
   1.95500044 -0.03712287  1.96838520
   0.00000000 -5.87608392  5.87608392
   0.00000000 -1.95694203  5.87694524
   0.00000000 -1.95780335  1.95780335
   0.00000000  1.96000161  1.96000161
 


--------------------------------------------------------------------------------------------------------


 k-point  1 :   0.0000 0.0000 0.0000  plane waves:    6467
 k-point  2 :   0.2000 0.0000 0.0000  plane waves:    6465
 k-point  3 :   0.4000 0.0000 0.0000  plane waves:    6460
 k-point  4 :   0.0000 0.2500 0.0000  plane waves:    6467
 k-point  5 :   0.2000 0.2500 0.0000  plane waves:    6472
 k-point  6 :   0.4000 0.2500 0.0000  plane waves:    6470
 k-point  7 :   0.0000 0.5000 0.0000  plane waves:    6460
 k-point  8 :   0.2000 0.5000 0.0000  plane waves:    6458
 k-point  9 :   0.4000 0.5000 0.0000  plane waves:    6478
 k-point 10 :   0.0000 0.0000 0.5000  plane waves:    6486
 k-point 11 :   0.2000 0.0000 0.5000  plane waves:    6478
 k-point 12 :   0.4000 0.0000 0.5000  plane waves:    6460
 k-point 13 :   0.0000 0.2500 0.5000  plane waves:    6482
 k-point 14 :   0.2000 0.2500 0.5000  plane waves:    6442
 k-point 15 :   0.4000 0.2500 0.5000  plane waves:    6474
 k-point 16 :   0.0000 0.5000 0.5000  plane waves:    6448
 k-point 17 :   0.2000 0.5000 0.5000  plane waves:    6456
 k-point 18 :   0.4000 0.5000 0.5000  plane waves:    6468

 maximum and minimum number of plane-waves per node :       665      622

 maximum number of plane-waves:      6486
 maximum index in each direction: 
   IXMAX=    7   IYMAX=   10   IZMAX=   20
   IXMIN=   -7   IYMIN=  -10   IZMIN=  -21


 real space projection operators:
  total allocation   :      13231.91 KBytes
  max/ min on nodes  :       1384.38       1295.44


 parallel 3D FFT for wavefunctions:
    minimum data exchange during FFTs selected (reduces bandwidth)
 parallel 3D FFT for charge:
    minimum data exchange during FFTs selected (reduces bandwidth)


 total amount of memory used by VASP MPI-rank0    60691. kBytes
=======================================================================

   base      :      30000. kBytes
   nonlr-proj:       4427. kBytes
   fftplans  :       1760. kBytes
   grid      :       4955. kBytes
   one-center:        196. kBytes
   wavefun   :      19353. kBytes
 
     INWAV:  cpu time    0.0000: real time    0.0001
 Broyden mixing: mesh for mixing (old mesh)
   NGX = 15   NGY = 21   NGZ = 41
  (NGX  = 60   NGY  = 84   NGZ  =168)
  gives a total of  12915 points

 initial charge density was supplied:
 charge density of overlapping atoms calculated
 number of electron     147.0000000 magnetization      15.0000000
 keeping initial charge density in first step


--------------------------------------------------------------------------------------------------------


 Maximum index for non-local projection operator          803
 Maximum index for augmentation-charges          953 (set IRDMAX)


--------------------------------------------------------------------------------------------------------


 First call to EWALD:  gamma=   0.285
 Maximum number of real-space cells 4x 3x 2
 Maximum number of reciprocal cells 2x 3x 5

    FEWALD:  cpu time    0.0018: real time    0.0025


--------------------------------------- Iteration      1(   1)  ---------------------------------------


    POTLOK:  cpu time    0.0494: real time    0.0519
    SETDIJ:  cpu time    0.0110: real time    0.0111
atom =   1  type =  1  l = 0
 
 onsite density matrix
 
spin component  1
 
  1.0989
 
spin component  2
 
  1.0989
 
 occupancies and eigenvectors
 
  o =  1.0989  v =  1.0000  0.0000      0.0000  0.0000
  o =  1.0989  v =  0.0000  1.0000      0.0000  0.0000
atom =   2  type =  1  l = 0
 
 onsite density matrix
 
spin component  1
 
  1.0989
 
spin component  2
 
  1.0989
 
 occupancies and eigenvectors
 
  o =  1.0989  v =  1.0000  0.0000      0.0000  0.0000
  o =  1.0989  v =  0.0000  1.0000      0.0000  0.0000
atom =   3  type =  1  l = 0
 
 onsite density matrix
 
spin component  1
 
  1.0989
 
spin component  2
 
  1.0989
 
 occupancies and eigenvectors
 
  o =  1.0989  v =  1.0000  0.0000      0.0000  0.0000
  o =  1.0989  v =  0.0000  1.0000      0.0000  0.0000
atom =   4  type =  1  l = 0
 
 onsite density matrix
 
spin component  1
 
  1.0989
 
spin component  2
 
  1.0989
 
 occupancies and eigenvectors
 
  o =  1.0989  v =  1.0000  0.0000      0.0000  0.0000
  o =  1.0989  v =  0.0000  1.0000      0.0000  0.0000
atom =   5  type =  2  l = 2
 
 onsite density matrix
 
spin component  1
 
  0.8272  0.0000  0.0000  0.0000  0.0000
  0.0000  0.8272  0.0000  0.0000  0.0000
  0.0000  0.0000  0.8272  0.0000  0.0000
  0.0000  0.0000  0.0000  0.8272  0.0000
  0.0000  0.0000  0.0000  0.0000  0.8272
 
spin component  2
 
  0.2256  0.0000  0.0000  0.0000  0.0000
  0.0000  0.2256  0.0000  0.0000  0.0000
  0.0000  0.0000  0.2256  0.0000  0.0000
  0.0000  0.0000  0.0000  0.2256  0.0000
  0.0000  0.0000  0.0000  0.0000  0.2256
 
 occupancies and eigenvectors
 
  o =  0.2256  v =  0.0000  0.0000  0.0000  0.0000  0.0000  0.0000  0.0000  1.0000  0.0000  0.0000      0.0000  0.0000  0.0000  0.0000  0.0000  0.0000  0.0000  0.0000  0.0000  0.0000
  o =  0.2256  v =  0.0000  0.0000  0.0000  0.0000  0.0000  1.0000  0.0000  0.0000  0.0000  0.0000      0.0000  0.0000  0.0000  0.0000  0.0000  0.0000  0.0000  0.0000  0.0000  0.0000
  o =  0.2256  v =  0.0000  0.0000  0.0000  0.0000  0.0000  0.0000  1.0000  0.0000  0.0000  0.0000      0.0000  0.0000  0.0000  0.0000  0.0000  0.0000  0.0000  0.0000  0.0000  0.0000
  o =  0.2256  v =  0.0000  0.0000  0.0000  0.0000  0.0000  0.0000  0.0000  0.0000  1.0000  0.0000      0.0000  0.0000  0.0000  0.0000  0.0000  0.0000  0.0000  0.0000  0.0000  0.0000
  o =  0.2256  v =  0.0000  0.0000  0.0000  0.0000  0.0000  0.0000  0.0000  0.0000  0.0000  1.0000      0.0000  0.0000  0.0000  0.0000  0.0000  0.0000  0.0000  0.0000  0.0000  0.0000
  o =  0.8272  v =  0.0000  1.0000  0.0000  0.0000  0.0000  0.0000  0.0000  0.0000  0.0000  0.0000      0.0000  0.0000  0.0000  0.0000  0.0000  0.0000  0.0000  0.0000  0.0000  0.0000
  o =  0.8272  v =  0.0000  0.0000  1.0000  0.0000  0.0000  0.0000  0.0000  0.0000  0.0000  0.0000      0.0000  0.0000  0.0000  0.0000  0.0000  0.0000  0.0000  0.0000  0.0000  0.0000
  o =  0.8272  v =  1.0000  0.0000  0.0000  0.0000  0.0000  0.0000  0.0000  0.0000  0.0000  0.0000      0.0000  0.0000  0.0000  0.0000  0.0000  0.0000  0.0000  0.0000  0.0000  0.0000
  o =  0.8272  v =  0.0000  0.0000  0.0000  1.0000  0.0000  0.0000  0.0000  0.0000  0.0000  0.0000      0.0000  0.0000  0.0000  0.0000  0.0000  0.0000  0.0000  0.0000  0.0000  0.0000
  o =  0.8272  v =  0.0000  0.0000  0.0000  0.0000  1.0000  0.0000  0.0000  0.0000  0.0000  0.0000      0.0000  0.0000  0.0000  0.0000  0.0000  0.0000  0.0000  0.0000  0.0000  0.0000
atom =   6  type =  2  l = 2
 
 onsite density matrix
 
spin component  1
 
  0.8272  0.0000  0.0000  0.0000  0.0000
  0.0000  0.8272  0.0000  0.0000  0.0000
  0.0000  0.0000  0.8272  0.0000  0.0000
  0.0000  0.0000  0.0000  0.8272  0.0000
  0.0000  0.0000  0.0000  0.0000  0.8272
 
spin component  2
 
  0.2256  0.0000  0.0000  0.0000  0.0000
  0.0000  0.2256  0.0000  0.0000  0.0000
  0.0000  0.0000  0.2256  0.0000  0.0000
  0.0000  0.0000  0.0000  0.2256  0.0000
  0.0000  0.0000  0.0000  0.0000  0.2256
 
 occupancies and eigenvectors
 
  o =  0.2256  v =  0.0000  0.0000  0.0000  0.0000  0.0000  0.0000  0.0000  1.0000  0.0000  0.0000      0.0000  0.0000  0.0000  0.0000  0.0000  0.0000  0.0000  0.0000  0.0000  0.0000
  o =  0.2256  v =  0.0000  0.0000  0.0000  0.0000  0.0000  1.0000  0.0000  0.0000  0.0000  0.0000      0.0000  0.0000  0.0000  0.0000  0.0000  0.0000  0.0000  0.0000  0.0000  0.0000
  o =  0.2256  v =  0.0000  0.0000  0.0000  0.0000  0.0000  0.0000  1.0000  0.0000  0.0000  0.0000      0.0000  0.0000  0.0000  0.0000  0.0000  0.0000  0.0000  0.0000  0.0000  0.0000
  o =  0.2256  v =  0.0000  0.0000  0.0000  0.0000  0.0000  0.0000  0.0000  0.0000  1.0000  0.0000      0.0000  0.0000  0.0000  0.0000  0.0000  0.0000  0.0000  0.0000  0.0000  0.0000
  o =  0.2256  v =  0.0000  0.0000  0.0000  0.0000  0.0000  0.0000  0.0000  0.0000  0.0000  1.0000      0.0000  0.0000  0.0000  0.0000  0.0000  0.0000  0.0000  0.0000  0.0000  0.0000
  o =  0.8272  v =  0.0000  1.0000  0.0000  0.0000  0.0000  0.0000  0.0000  0.0000  0.0000  0.0000      0.0000  0.0000  0.0000  0.0000  0.0000  0.0000  0.0000  0.0000  0.0000  0.0000
  o =  0.8272  v =  0.0000  0.0000  1.0000  0.0000  0.0000  0.0000  0.0000  0.0000  0.0000  0.0000      0.0000  0.0000  0.0000  0.0000  0.0000  0.0000  0.0000  0.0000  0.0000  0.0000
  o =  0.8272  v =  1.0000  0.0000  0.0000  0.0000  0.0000  0.0000  0.0000  0.0000  0.0000  0.0000      0.0000  0.0000  0.0000  0.0000  0.0000  0.0000  0.0000  0.0000  0.0000  0.0000
  o =  0.8272  v =  0.0000  0.0000  0.0000  1.0000  0.0000  0.0000  0.0000  0.0000  0.0000  0.0000      0.0000  0.0000  0.0000  0.0000  0.0000  0.0000  0.0000  0.0000  0.0000  0.0000
  o =  0.8272  v =  0.0000  0.0000  0.0000  0.0000  1.0000  0.0000  0.0000  0.0000  0.0000  0.0000      0.0000  0.0000  0.0000  0.0000  0.0000  0.0000  0.0000  0.0000  0.0000  0.0000
atom =   7  type =  2  l = 2
 
 onsite density matrix
 
spin component  1
 
  0.8272  0.0000  0.0000  0.0000  0.0000
  0.0000  0.8272  0.0000  0.0000  0.0000
  0.0000  0.0000  0.8272  0.0000  0.0000
  0.0000  0.0000  0.0000  0.8272  0.0000
  0.0000  0.0000  0.0000  0.0000  0.8272
 
spin component  2
 
  0.2256  0.0000  0.0000  0.0000  0.0000
  0.0000  0.2256  0.0000  0.0000  0.0000
  0.0000  0.0000  0.2256  0.0000  0.0000
  0.0000  0.0000  0.0000  0.2256  0.0000
  0.0000  0.0000  0.0000  0.0000  0.2256
 
 occupancies and eigenvectors
 
  o =  0.2256  v =  0.0000  0.0000  0.0000  0.0000  0.0000  0.0000  0.0000  1.0000  0.0000  0.0000      0.0000  0.0000  0.0000  0.0000  0.0000  0.0000  0.0000  0.0000  0.0000  0.0000
  o =  0.2256  v =  0.0000  0.0000  0.0000  0.0000  0.0000  1.0000  0.0000  0.0000  0.0000  0.0000      0.0000  0.0000  0.0000  0.0000  0.0000  0.0000  0.0000  0.0000  0.0000  0.0000
  o =  0.2256  v =  0.0000  0.0000  0.0000  0.0000  0.0000  0.0000  1.0000  0.0000  0.0000  0.0000      0.0000  0.0000  0.0000  0.0000  0.0000  0.0000  0.0000  0.0000  0.0000  0.0000
  o =  0.2256  v =  0.0000  0.0000  0.0000  0.0000  0.0000  0.0000  0.0000  0.0000  1.0000  0.0000      0.0000  0.0000  0.0000  0.0000  0.0000  0.0000  0.0000  0.0000  0.0000  0.0000
  o =  0.2256  v =  0.0000  0.0000  0.0000  0.0000  0.0000  0.0000  0.0000  0.0000  0.0000  1.0000      0.0000  0.0000  0.0000  0.0000  0.0000  0.0000  0.0000  0.0000  0.0000  0.0000
  o =  0.8272  v =  0.0000  1.0000  0.0000  0.0000  0.0000  0.0000  0.0000  0.0000  0.0000  0.0000      0.0000  0.0000  0.0000  0.0000  0.0000  0.0000  0.0000  0.0000  0.0000  0.0000
  o =  0.8272  v =  0.0000  0.0000  1.0000  0.0000  0.0000  0.0000  0.0000  0.0000  0.0000  0.0000      0.0000  0.0000  0.0000  0.0000  0.0000  0.0000  0.0000  0.0000  0.0000  0.0000
  o =  0.8272  v =  1.0000  0.0000  0.0000  0.0000  0.0000  0.0000  0.0000  0.0000  0.0000  0.0000      0.0000  0.0000  0.0000  0.0000  0.0000  0.0000  0.0000  0.0000  0.0000  0.0000
  o =  0.8272  v =  0.0000  0.0000  0.0000  1.0000  0.0000  0.0000  0.0000  0.0000  0.0000  0.0000      0.0000  0.0000  0.0000  0.0000  0.0000  0.0000  0.0000  0.0000  0.0000  0.0000
  o =  0.8272  v =  0.0000  0.0000  0.0000  0.0000  1.0000  0.0000  0.0000  0.0000  0.0000  0.0000      0.0000  0.0000  0.0000  0.0000  0.0000  0.0000  0.0000  0.0000  0.0000  0.0000
atom =   8  type =  3  l = 2
 
 onsite density matrix
 
spin component  1
 
  1.1008  0.0000  0.0000  0.0000  0.0000
  0.0000  1.1008  0.0000  0.0000  0.0000
  0.0000  0.0000  1.1008  0.0000  0.0000
  0.0000  0.0000  0.0000  1.1008  0.0000
  0.0000  0.0000  0.0000  0.0000  1.1008
 
spin component  2
 
  0.5927  0.0000  0.0000  0.0000  0.0000
  0.0000  0.5927  0.0000  0.0000  0.0000
  0.0000  0.0000  0.5927  0.0000  0.0000
  0.0000  0.0000  0.0000  0.5927  0.0000
  0.0000  0.0000  0.0000  0.0000  0.5927
 
 occupancies and eigenvectors
 
  o =  0.5927  v =  0.0000  0.0000  0.0000  0.0000  0.0000  1.0000  0.0000  0.0000  0.0000  0.0000      0.0000  0.0000  0.0000  0.0000  0.0000  0.0000  0.0000  0.0000  0.0000  0.0000
  o =  0.5927  v =  0.0000  0.0000  0.0000  0.0000  0.0000  0.0000  1.0000  0.0000  0.0000  0.0000      0.0000  0.0000  0.0000  0.0000  0.0000  0.0000  0.0000  0.0000  0.0000  0.0000
  o =  0.5927  v =  0.0000  0.0000  0.0000  0.0000  0.0000  0.0000  0.0000  1.0000  0.0000  0.0000      0.0000  0.0000  0.0000  0.0000  0.0000  0.0000  0.0000  0.0000  0.0000  0.0000
  o =  0.5927  v =  0.0000  0.0000  0.0000  0.0000  0.0000  0.0000  0.0000  0.0000  1.0000  0.0000      0.0000  0.0000  0.0000  0.0000  0.0000  0.0000  0.0000  0.0000  0.0000  0.0000
  o =  0.5927  v =  0.0000  0.0000  0.0000  0.0000  0.0000  0.0000  0.0000  0.0000  0.0000  1.0000      0.0000  0.0000  0.0000  0.0000  0.0000  0.0000  0.0000  0.0000  0.0000  0.0000
  o =  1.1008  v =  1.0000  0.0000  0.0000  0.0000  0.0000  0.0000  0.0000  0.0000  0.0000  0.0000      0.0000  0.0000  0.0000  0.0000  0.0000  0.0000  0.0000  0.0000  0.0000  0.0000
  o =  1.1008  v =  0.0000  1.0000  0.0000  0.0000  0.0000  0.0000  0.0000  0.0000  0.0000  0.0000      0.0000  0.0000  0.0000  0.0000  0.0000  0.0000  0.0000  0.0000  0.0000  0.0000
  o =  1.1008  v =  0.0000  0.0000  1.0000  0.0000  0.0000  0.0000  0.0000  0.0000  0.0000  0.0000      0.0000  0.0000  0.0000  0.0000  0.0000  0.0000  0.0000  0.0000  0.0000  0.0000
  o =  1.1008  v =  0.0000  0.0000  0.0000  1.0000  0.0000  0.0000  0.0000  0.0000  0.0000  0.0000      0.0000  0.0000  0.0000  0.0000  0.0000  0.0000  0.0000  0.0000  0.0000  0.0000
  o =  1.1008  v =  0.0000  0.0000  0.0000  0.0000  1.0000  0.0000  0.0000  0.0000  0.0000  0.0000      0.0000  0.0000  0.0000  0.0000  0.0000  0.0000  0.0000  0.0000  0.0000  0.0000
atom =   9  type =  4  l = 0
 
 onsite density matrix
 
spin component  1
 
  0.8190
 
spin component  2
 
  0.8190
 
 occupancies and eigenvectors
 
  o =  0.8190  v =  1.0000  0.0000      0.0000  0.0000
  o =  0.8190  v =  0.0000  1.0000      0.0000  0.0000
atom =  10  type =  4  l = 0
 
 onsite density matrix
 
spin component  1
 
  0.8190
 
spin component  2
 
  0.8190
 
 occupancies and eigenvectors
 
  o =  0.8190  v =  1.0000  0.0000      0.0000  0.0000
  o =  0.8190  v =  0.0000  1.0000      0.0000  0.0000
atom =  11  type =  4  l = 0
 
 onsite density matrix
 
spin component  1
 
  0.8190
 
spin component  2
 
  0.8190
 
 occupancies and eigenvectors
 
  o =  0.8190  v =  1.0000  0.0000      0.0000  0.0000
  o =  0.8190  v =  0.0000  1.0000      0.0000  0.0000
atom =  12  type =  4  l = 0
 
 onsite density matrix
 
spin component  1
 
  0.8190
 
spin component  2
 
  0.8190
 
 occupancies and eigenvectors
 
  o =  0.8190  v =  1.0000  0.0000      0.0000  0.0000
  o =  0.8190  v =  0.0000  1.0000      0.0000  0.0000
atom =  13  type =  4  l = 0
 
 onsite density matrix
 
spin component  1
 
  0.8190
 
spin component  2
 
  0.8190
 
 occupancies and eigenvectors
 
  o =  0.8190  v =  1.0000  0.0000      0.0000  0.0000
  o =  0.8190  v =  0.0000  1.0000      0.0000  0.0000
atom =  14  type =  4  l = 0
 
 onsite density matrix
 
spin component  1
 
  0.8190
 
spin component  2
 
  0.8190
 
 occupancies and eigenvectors
 
  o =  0.8190  v =  1.0000  0.0000      0.0000  0.0000
  o =  0.8190  v =  0.0000  1.0000      0.0000  0.0000
atom =  15  type =  4  l = 0
 
 onsite density matrix
 
spin component  1
 
  0.8190
 
spin component  2
 
  0.8190
 
 occupancies and eigenvectors
 
  o =  0.8190  v =  1.0000  0.0000      0.0000  0.0000
  o =  0.8190  v =  0.0000  1.0000      0.0000  0.0000
atom =  16  type =  4  l = 0
 
 onsite density matrix
 
spin component  1
 
  0.8190
 
spin component  2
 
  0.8190
 
 occupancies and eigenvectors
 
  o =  0.8190  v =  1.0000  0.0000      0.0000  0.0000
  o =  0.8190  v =  0.0000  1.0000      0.0000  0.0000
atom =  17  type =  4  l = 0
 
 onsite density matrix
 
spin component  1
 
  0.8190
 
spin component  2
 
  0.8190
 
 occupancies and eigenvectors
 
  o =  0.8190  v =  1.0000  0.0000      0.0000  0.0000
  o =  0.8190  v =  0.0000  1.0000      0.0000  0.0000
atom =  18  type =  4  l = 0
 
 onsite density matrix
 
spin component  1
 
  0.8190
 
spin component  2
 
  0.8190
 
 occupancies and eigenvectors
 
  o =  0.8190  v =  1.0000  0.0000      0.0000  0.0000
  o =  0.8190  v =  0.0000  1.0000      0.0000  0.0000
atom =  19  type =  4  l = 0
 
 onsite density matrix
 
spin component  1
 
  0.8190
 
spin component  2
 
  0.8190
 
 occupancies and eigenvectors
 
  o =  0.8190  v =  1.0000  0.0000      0.0000  0.0000
  o =  0.8190  v =  0.0000  1.0000      0.0000  0.0000
atom =  20  type =  4  l = 0
 
 onsite density matrix
 
spin component  1
 
  0.8190
 
spin component  2
 
  0.8190
 
 occupancies and eigenvectors
 
  o =  0.8190  v =  1.0000  0.0000      0.0000  0.0000
  o =  0.8190  v =  0.0000  1.0000      0.0000  0.0000
     EDDAV:  cpu time    2.4185: real time    2.4302
 BZINTS: Fermi energy: 28.605374;147.000000 electrons
         Band energy:2059.580048;  BLOECHL correction: -0.252321
       DOS:  cpu time    0.0362: real time    0.0366
    --------------------------------------------
      LOOP:  cpu time    2.5151: real time    2.5299

 eigenvalue-minimisations  :  7408
 total energy-change (2. order) : 0.2251689E+04  (-0.5296423E+04)
 number of electron     147.0000000 magnetization      15.0000000
 augmentation part      147.0000000 magnetization      15.0000000

 Free energy of the ion-electron system (eV)
  ---------------------------------------------------
  alpha Z        PSCENC =       643.39698888
  Ewald energy   TEWEN  =     -9839.25657475
  -Hartree energ DENC   =     -2055.68650066
  -exchange      EXHF   =         0.00000000
  -V(xc)+E(xc)   XCENC  =       458.94082525
  PAW double counting   =      8910.65829758    -8906.06727678
  entropy T*S    EENTRO =         0.00000000
  eigenvalues    EBANDS =      2059.58004837
  atomic energy  EATOM  =     10980.12334246
  Solvation  Ediel_sol  =         0.00000000
  ---------------------------------------------------
  free energy    TOTEN  =      2251.68915037 eV

  energy without entropy =     2251.68915037  energy(sigma->0) =     2251.68915037


--------------------------------------------------------------------------------------------------------




--------------------------------------- Iteration      1(   2)  ---------------------------------------


     EDDAV:  cpu time    2.5272: real time    2.5476
 BZINTS: Fermi energy: 15.496909;147.000000 electrons
         Band energy: 520.904876;  BLOECHL correction: -0.063020
       DOS:  cpu time    0.0362: real time    0.0363
    --------------------------------------------
      LOOP:  cpu time    2.5634: real time    2.5839

 eigenvalue-minimisations  :  7856
 total energy-change (2. order) :-0.1538675E+04  (-0.1388900E+04)
 number of electron     147.0000000 magnetization      15.0000000
 augmentation part      147.0000000 magnetization      15.0000000

 Free energy of the ion-electron system (eV)
  ---------------------------------------------------
  alpha Z        PSCENC =       643.39698888
  Ewald energy   TEWEN  =     -9839.25657475
  -Hartree energ DENC   =     -2055.68650066
  -exchange      EXHF   =         0.00000000
  -V(xc)+E(xc)   XCENC  =       458.94082525
  PAW double counting   =      8910.65829758    -8906.06727678
  entropy T*S    EENTRO =         0.00000000
  eigenvalues    EBANDS =       520.90487562
  atomic energy  EATOM  =     10980.12334246
  Solvation  Ediel_sol  =         0.00000000
  ---------------------------------------------------
  free energy    TOTEN  =       713.01397762 eV

  energy without entropy =      713.01397762  energy(sigma->0) =      713.01397762


--------------------------------------------------------------------------------------------------------




--------------------------------------- Iteration      1(   3)  ---------------------------------------


     EDDAV:  cpu time    2.7230: real time    2.7351
 BZINTS: Fermi energy: 11.735187;147.000000 electrons
         Band energy: -88.339604;  BLOECHL correction: -0.023588
       DOS:  cpu time    0.0378: real time    0.0381
    --------------------------------------------
      LOOP:  cpu time    2.7608: real time    2.7732

 eigenvalue-minimisations  :  8560
 total energy-change (2. order) :-0.6092445E+03  (-0.5608033E+03)
 number of electron     147.0000000 magnetization      15.0000000
 augmentation part      147.0000000 magnetization      15.0000000

 Free energy of the ion-electron system (eV)
  ---------------------------------------------------
  alpha Z        PSCENC =       643.39698888
  Ewald energy   TEWEN  =     -9839.25657475
  -Hartree energ DENC   =     -2055.68650066
  -exchange      EXHF   =         0.00000000
  -V(xc)+E(xc)   XCENC  =       458.94082525
  PAW double counting   =      8910.65829758    -8906.06727678
  entropy T*S    EENTRO =         0.00000000
  eigenvalues    EBANDS =       -88.33960408
  atomic energy  EATOM  =     10980.12334246
  Solvation  Ediel_sol  =         0.00000000
  ---------------------------------------------------
  free energy    TOTEN  =       103.76949792 eV

  energy without entropy =      103.76949792  energy(sigma->0) =      103.76949792


--------------------------------------------------------------------------------------------------------




--------------------------------------- Iteration      1(   4)  ---------------------------------------


     EDDAV:  cpu time    3.4402: real time    3.4579
 BZINTS: Fermi energy: 11.084358;147.000000 electrons
         Band energy:-324.201534;  BLOECHL correction: -0.009695
       DOS:  cpu time    0.0413: real time    0.0416
    --------------------------------------------
      LOOP:  cpu time    3.4815: real time    3.4995

 eigenvalue-minimisations  : 11472
 total energy-change (2. order) :-0.2358619E+03  (-0.2240071E+03)
 number of electron     147.0000000 magnetization      15.0000000
 augmentation part      147.0000000 magnetization      15.0000000

 Free energy of the ion-electron system (eV)
  ---------------------------------------------------
  alpha Z        PSCENC =       643.39698888
  Ewald energy   TEWEN  =     -9839.25657475
  -Hartree energ DENC   =     -2055.68650066
  -exchange      EXHF   =         0.00000000
  -V(xc)+E(xc)   XCENC  =       458.94082525
  PAW double counting   =      8910.65829758    -8906.06727678
  entropy T*S    EENTRO =         0.00000000
  eigenvalues    EBANDS =      -324.20153363
  atomic energy  EATOM  =     10980.12334246
  Solvation  Ediel_sol  =         0.00000000
  ---------------------------------------------------
  free energy    TOTEN  =      -132.09243164 eV

  energy without entropy =     -132.09243164  energy(sigma->0) =     -132.09243164


--------------------------------------------------------------------------------------------------------




--------------------------------------- Iteration      1(   5)  ---------------------------------------


     EDDAV:  cpu time    3.6819: real time    3.6976
 BZINTS: Fermi energy: 10.683399;147.000000 electrons
         Band energy:-367.104114;  BLOECHL correction: -0.073234
       DOS:  cpu time    0.0388: real time    0.0389
    CHARGE:  cpu time    0.1198: real time    0.1203
    MIXING:  cpu time    0.0021: real time    0.0022
    --------------------------------------------
      LOOP:  cpu time    3.8427: real time    3.8591

 eigenvalue-minimisations  : 12432
 total energy-change (2. order) :-0.4290258E+02  (-0.4124166E+02)
 number of electron     147.0000016 magnetization      13.9469471
 augmentation part       16.1880112 magnetization       9.5793068

 Broyden mixing:
  rms(total) = 0.55040E+01    rms(broyden)= 0.55036E+01
  rms(prec ) = 0.63091E+01
  weight for this iteration     100.00

 Free energy of the ion-electron system (eV)
  ---------------------------------------------------
  alpha Z        PSCENC =       643.39698888
  Ewald energy   TEWEN  =     -9839.25657475
  -Hartree energ DENC   =     -2055.68650066
  -exchange      EXHF   =         0.00000000
  -V(xc)+E(xc)   XCENC  =       458.94082525
  PAW double counting   =      8910.65829758    -8906.06727678
  entropy T*S    EENTRO =         0.00000000
  eigenvalues    EBANDS =      -367.10411373
  atomic energy  EATOM  =     10980.12334246
  Solvation  Ediel_sol  =         0.00000000
  ---------------------------------------------------
  free energy    TOTEN  =      -174.99501174 eV

  energy without entropy =     -174.99501174  energy(sigma->0) =     -174.99501174


--------------------------------------------------------------------------------------------------------




--------------------------------------- Iteration      1(   6)  ---------------------------------------


    POTLOK:  cpu time    0.0456: real time    0.0478
    SETDIJ:  cpu time    0.0105: real time    0.0105
atom =   1  type =  1  l = 0
 
 onsite density matrix
 
spin component  1
 
  1.0563
 
spin component  2
 
  1.0564
 
 occupancies and eigenvectors
 
  o =  1.0563  v =  1.0000  0.0000      0.0000  0.0000
  o =  1.0564  v =  0.0000  1.0000      0.0000  0.0000
atom =   2  type =  1  l = 0
 
 onsite density matrix
 
spin component  1
 
  1.0562
 
spin component  2
 
  1.0564
 
 occupancies and eigenvectors
 
  o =  1.0562  v =  1.0000  0.0000      0.0000  0.0000
  o =  1.0564  v =  0.0000  1.0000      0.0000  0.0000
atom =   3  type =  1  l = 0
 
 onsite density matrix
 
spin component  1
 
  1.0563
 
spin component  2
 
  1.0564
 
 occupancies and eigenvectors
 
  o =  1.0563  v =  1.0000  0.0000      0.0000  0.0000
  o =  1.0564  v =  0.0000  1.0000      0.0000  0.0000
atom =   4  type =  1  l = 0
 
 onsite density matrix
 
spin component  1
 
  1.0576
 
spin component  2
 
  1.0575
 
 occupancies and eigenvectors
 
  o =  1.0575  v =  0.0000  1.0000      0.0000  0.0000
  o =  1.0576  v =  1.0000  0.0000      0.0000  0.0000
atom =   5  type =  2  l = 2
 
 onsite density matrix
 
spin component  1
 
  0.9773 -0.0000  0.0000  0.0001 -0.0000
 -0.0000  0.9724  0.0035 -0.0000 -0.0060
  0.0000  0.0035  0.4057  0.0000 -0.0223
  0.0001 -0.0000  0.0000  0.9773  0.0000
 -0.0000 -0.0060 -0.0223  0.0000  0.4314
 
spin component  2
 
  0.0147  0.0000 -0.0000 -0.0002  0.0000
  0.0000  0.0204 -0.0022  0.0000  0.0038
 -0.0000 -0.0022  0.4133 -0.0000  0.0159
 -0.0002  0.0000 -0.0000  0.0147 -0.0000
  0.0000  0.0038  0.0159 -0.0000  0.3949
 
 occupancies and eigenvectors
 
  o =  0.0145  v =  0.0000  0.0000  0.0000  0.0000  0.0000 -0.7071  0.0000  0.0000 -0.7071 -0.0000      0.0000  0.0000  0.0000  0.0000  0.0000  0.0000  0.0000  0.0000  0.0000  0.0000
  o =  0.0149  v =  0.0000  0.0000  0.0000  0.0000  0.0000 -0.7071 -0.0000 -0.0000  0.7071  0.0000      0.0000  0.0000  0.0000  0.0000  0.0000  0.0000  0.0000  0.0000  0.0000  0.0000
  o =  0.0204  v =  0.0000  0.0000  0.0000  0.0000  0.0000  0.0000  0.9999  0.0060  0.0000 -0.0104      0.0000  0.0000  0.0000  0.0000  0.0000  0.0000  0.0000  0.0000  0.0000  0.0000
  o =  0.3858  v =  0.0000  0.0000  0.0000  0.0000  0.0000  0.0000  0.0120 -0.5000  0.0000  0.8660      0.0000  0.0000  0.0000  0.0000  0.0000  0.0000  0.0000  0.0000  0.0000  0.0000
  o =  0.3928  v =  0.0000  0.0000 -0.8660  0.0000 -0.5000  0.0000  0.0000  0.0000  0.0000  0.0000      0.0000  0.0000  0.0000  0.0000  0.0000  0.0000  0.0000  0.0000  0.0000  0.0000
  o =  0.4225  v =  0.0000  0.0000  0.0000  0.0000  0.0000  0.0000  0.0000 -0.8660  0.0000 -0.5000      0.0000  0.0000  0.0000  0.0000  0.0000  0.0000  0.0000  0.0000  0.0000  0.0000
  o =  0.4442  v = -0.0000 -0.0132  0.5000  0.0000 -0.8659  0.0000  0.0000  0.0000  0.0000  0.0000      0.0000  0.0000  0.0000  0.0000  0.0000  0.0000  0.0000  0.0000  0.0000  0.0000
  o =  0.9725  v =  0.0000 -0.9999 -0.0066 -0.0000  0.0114  0.0000  0.0000  0.0000  0.0000  0.0000      0.0000  0.0000  0.0000  0.0000  0.0000  0.0000  0.0000  0.0000  0.0000  0.0000
  o =  0.9771  v =  0.7071  0.0000  0.0000 -0.7071 -0.0000  0.0000  0.0000  0.0000  0.0000  0.0000      0.0000  0.0000  0.0000  0.0000  0.0000  0.0000  0.0000  0.0000  0.0000  0.0000
  o =  0.9774  v = -0.7071  0.0000  0.0000 -0.7071 -0.0000  0.0000  0.0000  0.0000  0.0000  0.0000      0.0000  0.0000  0.0000  0.0000  0.0000  0.0000  0.0000  0.0000  0.0000  0.0000
atom =   6  type =  2  l = 2
 
 onsite density matrix
 
spin component  1
 
  0.9718  0.0000  0.0000 -0.0118  0.0000
  0.0000  0.9722  0.0075  0.0000 -0.0131
  0.0000  0.0075  0.4928  0.0000  0.0321
 -0.0118  0.0000  0.0000  0.9718 -0.0000
  0.0000 -0.0131  0.0321 -0.0000  0.4558
 
spin component  2
 
  0.0123  0.0000 -0.0000  0.0075  0.0000
  0.0000  0.0112 -0.0044  0.0000  0.0076
 -0.0000 -0.0044  0.3445 -0.0000 -0.0226
  0.0075  0.0000 -0.0000  0.0123  0.0000
  0.0000  0.0076 -0.0226  0.0000  0.3706
 
 occupancies and eigenvectors
 
  o =  0.0048  v =  0.0000  0.0000  0.0000  0.0000  0.0000  0.7071 -0.0000 -0.0000 -0.7071  0.0000      0.0000  0.0000  0.0000  0.0000  0.0000  0.0000  0.0000  0.0000  0.0000  0.0000
  o =  0.0110  v =  0.0000  0.0000  0.0000  0.0000  0.0000 -0.0000 -0.9997 -0.0118  0.0000  0.0204      0.0000  0.0000  0.0000  0.0000  0.0000  0.0000  0.0000  0.0000  0.0000  0.0000
  o =  0.0198  v =  0.0000  0.0000  0.0000  0.0000  0.0000 -0.7071  0.0000 -0.0000 -0.7071 -0.0000      0.0000  0.0000  0.0000  0.0000  0.0000  0.0000  0.0000  0.0000  0.0000  0.0000
  o =  0.3315  v =  0.0000  0.0000  0.0000  0.0000  0.0000 -0.0000  0.0000  0.8660 -0.0000  0.5000      0.0000  0.0000  0.0000  0.0000  0.0000  0.0000  0.0000  0.0000  0.0000  0.0000
  o =  0.3839  v =  0.0000  0.0000  0.0000  0.0000  0.0000  0.0000  0.0236 -0.4999 -0.0000  0.8658      0.0000  0.0000  0.0000  0.0000  0.0000  0.0000  0.0000  0.0000  0.0000  0.0000
  o =  0.4368  v =  0.0000 -0.0282  0.4998  0.0000 -0.8657  0.0000  0.0000  0.0000  0.0000  0.0000      0.0000  0.0000  0.0000  0.0000  0.0000  0.0000  0.0000  0.0000  0.0000  0.0000
  o =  0.5113  v =  0.0000 -0.0000  0.8660  0.0000  0.5000  0.0000  0.0000  0.0000  0.0000  0.0000      0.0000  0.0000  0.0000  0.0000  0.0000  0.0000  0.0000  0.0000  0.0000  0.0000
  o =  0.9601  v = -0.7071  0.0000  0.0000 -0.7071  0.0000  0.0000  0.0000  0.0000  0.0000  0.0000      0.0000  0.0000  0.0000  0.0000  0.0000  0.0000  0.0000  0.0000  0.0000  0.0000
  o =  0.9726  v =  0.0000 -0.9996 -0.0141 -0.0000  0.0244  0.0000  0.0000  0.0000  0.0000  0.0000      0.0000  0.0000  0.0000  0.0000  0.0000  0.0000  0.0000  0.0000  0.0000  0.0000
  o =  0.9836  v = -0.7071  0.0000 -0.0000  0.7071  0.0000  0.0000  0.0000  0.0000  0.0000  0.0000      0.0000  0.0000  0.0000  0.0000  0.0000  0.0000  0.0000  0.0000  0.0000  0.0000
atom =   7  type =  2  l = 2
 
 onsite density matrix
 
spin component  1
 
  0.9773 -0.0000  0.0000  0.0001  0.0000
 -0.0000  0.9724  0.0035  0.0000 -0.0060
  0.0000  0.0035  0.4057  0.0000 -0.0223
  0.0001  0.0000  0.0000  0.9773 -0.0000
  0.0000 -0.0060 -0.0223 -0.0000  0.4314
 
spin component  2
 
  0.0147 -0.0000 -0.0000 -0.0002 -0.0000
 -0.0000  0.0204 -0.0022  0.0000  0.0038
 -0.0000 -0.0022  0.4133 -0.0000  0.0159
 -0.0002  0.0000 -0.0000  0.0147  0.0000
 -0.0000  0.0038  0.0159  0.0000  0.3949
 
 occupancies and eigenvectors
 
  o =  0.0145  v =  0.0000  0.0000  0.0000  0.0000  0.0000  0.7071 -0.0000 -0.0000  0.7071  0.0000      0.0000  0.0000  0.0000  0.0000  0.0000  0.0000  0.0000  0.0000  0.0000  0.0000
  o =  0.0149  v =  0.0000  0.0000  0.0000  0.0000  0.0000 -0.7071 -0.0000 -0.0000  0.7071  0.0000      0.0000  0.0000  0.0000  0.0000  0.0000  0.0000  0.0000  0.0000  0.0000  0.0000
  o =  0.0204  v =  0.0000  0.0000  0.0000  0.0000  0.0000  0.0000 -0.9999 -0.0060 -0.0000  0.0104      0.0000  0.0000  0.0000  0.0000  0.0000  0.0000  0.0000  0.0000  0.0000  0.0000
  o =  0.3858  v =  0.0000  0.0000  0.0000  0.0000  0.0000  0.0000  0.0120 -0.5000 -0.0000  0.8660      0.0000  0.0000  0.0000  0.0000  0.0000  0.0000  0.0000  0.0000  0.0000  0.0000
  o =  0.3928  v =  0.0000 -0.0000 -0.8660 -0.0000 -0.5000  0.0000  0.0000  0.0000  0.0000  0.0000      0.0000  0.0000  0.0000  0.0000  0.0000  0.0000  0.0000  0.0000  0.0000  0.0000
  o =  0.4225  v =  0.0000  0.0000  0.0000  0.0000  0.0000  0.0000 -0.0000 -0.8660 -0.0000 -0.5000      0.0000  0.0000  0.0000  0.0000  0.0000  0.0000  0.0000  0.0000  0.0000  0.0000
  o =  0.4442  v = -0.0000  0.0132 -0.5000 -0.0000  0.8659  0.0000  0.0000  0.0000  0.0000  0.0000      0.0000  0.0000  0.0000  0.0000  0.0000  0.0000  0.0000  0.0000  0.0000  0.0000
  o =  0.9725  v =  0.0000  0.9999  0.0066 -0.0000 -0.0114  0.0000  0.0000  0.0000  0.0000  0.0000      0.0000  0.0000  0.0000  0.0000  0.0000  0.0000  0.0000  0.0000  0.0000  0.0000
  o =  0.9771  v =  0.7071 -0.0000 -0.0000 -0.7071  0.0000  0.0000  0.0000  0.0000  0.0000  0.0000      0.0000  0.0000  0.0000  0.0000  0.0000  0.0000  0.0000  0.0000  0.0000  0.0000
  o =  0.9774  v = -0.7071 -0.0000 -0.0000 -0.7071  0.0000  0.0000  0.0000  0.0000  0.0000  0.0000      0.0000  0.0000  0.0000  0.0000  0.0000  0.0000  0.0000  0.0000  0.0000  0.0000
atom =   8  type =  3  l = 2
 
 onsite density matrix
 
spin component  1
 
  0.8746  0.0000  0.0000 -0.0066  0.0000
  0.0000  0.8693  0.0000 -0.0000 -0.0001
  0.0000  0.0000  1.3106  0.0000 -0.0028
 -0.0066 -0.0000  0.0000  0.8746 -0.0000
  0.0000 -0.0001 -0.0028 -0.0000  1.3139
 
spin component  2
 
  0.8433  0.0000  0.0000  0.0123 -0.0000
  0.0000  0.8510 -0.0001 -0.0000  0.0002
  0.0000 -0.0001  0.1801 -0.0000 -0.0024
  0.0123 -0.0000 -0.0000  0.8433  0.0000
 -0.0000  0.0002 -0.0024  0.0000  0.1830
 
 occupancies and eigenvectors
 
  o =  0.1787  v =  0.0000  0.0000  0.0000  0.0000  0.0000  0.0000 -0.0000  0.8660 -0.0000  0.5000      0.0000  0.0000  0.0000  0.0000  0.0000  0.0000  0.0000  0.0000  0.0000  0.0000
  o =  0.1844  v =  0.0000  0.0000  0.0000  0.0000  0.0000  0.0000 -0.0004 -0.5000 -0.0000  0.8660      0.0000  0.0000  0.0000  0.0000  0.0000  0.0000  0.0000  0.0000  0.0000  0.0000
  o =  0.8310  v =  0.0000  0.0000  0.0000  0.0000  0.0000  0.7071 -0.0000  0.0000 -0.7071 -0.0000      0.0000  0.0000  0.0000  0.0000  0.0000  0.0000  0.0000  0.0000  0.0000  0.0000
  o =  0.8510  v =  0.0000  0.0000  0.0000  0.0000  0.0000 -0.0000 -1.0000  0.0002 -0.0000 -0.0003      0.0000  0.0000  0.0000  0.0000  0.0000  0.0000  0.0000  0.0000  0.0000  0.0000
  o =  0.8557  v =  0.0000  0.0000  0.0000  0.0000  0.0000  0.7071 -0.0000  0.0000  0.7071 -0.0000      0.0000  0.0000  0.0000  0.0000  0.0000  0.0000  0.0000  0.0000  0.0000  0.0000
  o =  0.8681  v =  0.7071 -0.0000  0.0000  0.7071 -0.0000  0.0000  0.0000  0.0000  0.0000  0.0000      0.0000  0.0000  0.0000  0.0000  0.0000  0.0000  0.0000  0.0000  0.0000  0.0000
  o =  0.8693  v = -0.0000 -1.0000  0.0001 -0.0000 -0.0002  0.0000  0.0000  0.0000  0.0000  0.0000      0.0000  0.0000  0.0000  0.0000  0.0000  0.0000  0.0000  0.0000  0.0000  0.0000
  o =  0.8812  v = -0.7071  0.0000 -0.0000  0.7071  0.0000  0.0000  0.0000  0.0000  0.0000  0.0000      0.0000  0.0000  0.0000  0.0000  0.0000  0.0000  0.0000  0.0000  0.0000  0.0000
  o =  1.3090  v = -0.0000  0.0000 -0.8660 -0.0000 -0.5000  0.0000  0.0000  0.0000  0.0000  0.0000      0.0000  0.0000  0.0000  0.0000  0.0000  0.0000  0.0000  0.0000  0.0000  0.0000
  o =  1.3155  v =  0.0000 -0.0002 -0.5000  0.0000  0.8660  0.0000  0.0000  0.0000  0.0000  0.0000      0.0000  0.0000  0.0000  0.0000  0.0000  0.0000  0.0000  0.0000  0.0000  0.0000
atom =   9  type =  4  l = 0
 
 onsite density matrix
 
spin component  1
 
  0.8136
 
spin component  2
 
  0.8175
 
 occupancies and eigenvectors
 
  o =  0.8136  v =  1.0000  0.0000      0.0000  0.0000
  o =  0.8175  v =  0.0000  1.0000      0.0000  0.0000
atom =  10  type =  4  l = 0
 
 onsite density matrix
 
spin component  1
 
  0.8136
 
spin component  2
 
  0.8175
 
 occupancies and eigenvectors
 
  o =  0.8136  v =  1.0000  0.0000      0.0000  0.0000
  o =  0.8175  v =  0.0000  1.0000      0.0000  0.0000
atom =  11  type =  4  l = 0
 
 onsite density matrix
 
spin component  1
 
  0.8162
 
spin component  2
 
  0.8146
 
 occupancies and eigenvectors
 
  o =  0.8146  v =  0.0000  1.0000      0.0000  0.0000
  o =  0.8162  v =  1.0000  0.0000      0.0000  0.0000
atom =  12  type =  4  l = 0
 
 onsite density matrix
 
spin component  1
 
  0.8162
 
spin component  2
 
  0.8146
 
 occupancies and eigenvectors
 
  o =  0.8146  v =  0.0000  1.0000      0.0000  0.0000
  o =  0.8162  v =  1.0000  0.0000      0.0000  0.0000
atom =  13  type =  4  l = 0
 
 onsite density matrix
 
spin component  1
 
  0.8162
 
spin component  2
 
  0.8146
 
 occupancies and eigenvectors
 
  o =  0.8146  v =  0.0000  1.0000      0.0000  0.0000
  o =  0.8162  v =  1.0000  0.0000      0.0000  0.0000
atom =  14  type =  4  l = 0
 
 onsite density matrix
 
spin component  1
 
  0.8136
 
spin component  2
 
  0.8175
 
 occupancies and eigenvectors
 
  o =  0.8136  v =  1.0000  0.0000      0.0000  0.0000
[...]
  0.004  -0.015   0.002  -0.025   0.000   0.001   0.010   0.000   0.000   0.009  -0.008   0.000  -0.002  -0.000  -0.005   0.003
  0.000   0.000  -0.000  -0.000   0.014  -0.000  -0.000  -0.005   0.064  -0.000   0.000   0.074  -0.000  -0.029  -0.000   0.000
 -0.000   0.001   0.007  -0.000  -0.000  -0.002   0.000   0.000  -0.000   0.084   0.000  -0.000   0.111   0.000  -0.038  -0.000
  0.000   0.000   0.000   0.000  -0.019  -0.000   0.000   0.007   0.059   0.000   0.000   0.047   0.000  -0.027   0.000  -0.000
 -0.004   0.017  -0.027  -0.005   0.000   0.010   0.003  -0.000   0.000   0.064  -0.089  -0.000   0.040   0.000  -0.028   0.040
  0.000   0.000   0.000   0.000  -0.001   0.000   0.000   0.004   0.013   0.000   0.000  -0.013  -0.000  -0.003  -0.000  -0.000
 -0.003   0.012  -0.022   0.010   0.000   0.009  -0.002  -0.000  -0.000  -0.100   0.101   0.000  -0.067   0.000   0.045  -0.045
 -0.005   0.020  -0.003   0.035   0.000  -0.001  -0.013  -0.000   0.000  -0.011   0.012  -0.000   0.003  -0.000   0.006  -0.005
  0.000  -0.000  -0.000   0.000  -0.020   0.000   0.000   0.007  -0.090   0.000   0.000  -0.101  -0.000   0.040   0.000  -0.000
  0.000  -0.001  -0.011   0.001   0.000   0.003  -0.001  -0.000   0.000  -0.118  -0.000   0.000  -0.155  -0.000   0.052   0.000
  0.000  -0.000   0.000  -0.000   0.026   0.000   0.000  -0.009  -0.081   0.000  -0.000  -0.067   0.000   0.037   0.000  -0.000
 total augmentation occupancy for first ion, spin component:           2
  0.000   0.000   0.000  -0.000   0.000  -0.000   0.000   0.000  -0.000  -0.000  -0.000  -0.000   0.000   0.000   0.000   0.000
  0.000   0.003   0.000  -0.000   0.000   0.000  -0.000   0.000  -0.000  -0.002  -0.001   0.000   0.001   0.000   0.001   0.000
  0.000   0.000   0.000  -0.000   0.000  -0.000   0.000  -0.000  -0.000  -0.000   0.000   0.000  -0.000   0.000   0.000   0.000
 -0.000  -0.000  -0.000   0.000   0.000   0.000  -0.000  -0.000  -0.000   0.000  -0.000   0.000   0.000  -0.000  -0.000  -0.000
  0.000   0.000   0.000   0.000   0.000  -0.000  -0.000   0.000   0.000   0.000   0.000  -0.000   0.000  -0.000   0.000   0.000
 -0.000   0.000  -0.000   0.000  -0.000   0.000  -0.000  -0.000  -0.000   0.000  -0.000  -0.000   0.000  -0.000   0.000   0.000
  0.000  -0.000   0.000  -0.000  -0.000  -0.000   0.000  -0.000   0.000  -0.000   0.000  -0.000  -0.000  -0.000  -0.000  -0.000
  0.000   0.000  -0.000  -0.000   0.000  -0.000  -0.000   0.000   0.000   0.000   0.000  -0.000  -0.000  -0.000  -0.000  -0.000
  0.000  -0.000  -0.000  -0.000   0.000   0.000   0.000   0.000  -0.002  -0.000   0.000  -0.009  -0.000   0.001   0.000  -0.000
 -0.000  -0.002  -0.000   0.000   0.000   0.000  -0.000   0.000   0.000  -0.003   0.004  -0.000  -0.007   0.000   0.002  -0.001
 -0.000  -0.001   0.000  -0.000   0.000  -0.000   0.000   0.000   0.000   0.004   0.028   0.000   0.000  -0.000  -0.001  -0.010
  0.000   0.000   0.000   0.000  -0.000  -0.000  -0.000  -0.000  -0.009   0.000   0.000  -0.002  -0.000   0.003  -0.000   0.000
  0.000   0.001  -0.000   0.000   0.000   0.000  -0.000   0.000   0.000  -0.007   0.000   0.000   0.027  -0.000   0.003  -0.000
  0.000   0.000   0.000  -0.000  -0.000   0.000  -0.000  -0.000   0.001   0.000   0.000   0.003   0.000  -0.001  -0.000   0.000
  0.000   0.001   0.000  -0.000  -0.000   0.000  -0.000  -0.000  -0.000   0.002  -0.001  -0.000   0.003   0.000  -0.001   0.001
  0.000   0.000   0.000  -0.000  -0.000   0.000  -0.000  -0.000   0.000  -0.001  -0.010  -0.000  -0.000   0.000   0.001   0.003
  0.000   0.000   0.000   0.000   0.000   0.000  -0.000   0.000   0.003  -0.000   0.000   0.001   0.000  -0.001  -0.000   0.000
 -0.000  -0.000  -0.000   0.000   0.000  -0.000   0.000   0.000   0.000   0.003  -0.000   0.000  -0.010   0.000  -0.001   0.000
 -0.000  -0.001   0.000   0.000   0.000   0.000   0.000  -0.000  -0.000   0.001  -0.000   0.000   0.001   0.000  -0.000   0.000
  0.000   0.000   0.000  -0.000   0.000   0.000   0.000   0.001   0.001   0.000   0.000  -0.001   0.000  -0.000   0.000   0.000
 -0.000   0.000   0.000  -0.000  -0.000   0.000  -0.000  -0.000   0.000   0.000   0.001   0.000   0.000   0.000  -0.000  -0.000
 -0.000  -0.001  -0.000  -0.000   0.000  -0.000  -0.001   0.000  -0.000   0.001  -0.001   0.000   0.000  -0.000  -0.000   0.000
  0.000  -0.000  -0.000   0.000   0.000   0.000  -0.000   0.000  -0.000   0.000  -0.000   0.001   0.000  -0.000  -0.000   0.000
  0.000   0.001   0.000  -0.000  -0.000   0.000  -0.000   0.000   0.000  -0.000  -0.000   0.000  -0.001  -0.000   0.000   0.000
  0.000   0.000  -0.000   0.000  -0.000  -0.000  -0.000  -0.001   0.001   0.000   0.000  -0.000  -0.000  -0.000   0.000   0.000
  0.000   0.002   0.000   0.000   0.000  -0.001  -0.000  -0.000  -0.000  -0.002   0.001   0.000  -0.003  -0.000   0.001  -0.000
  0.000   0.000   0.000  -0.000   0.001  -0.000   0.000  -0.001  -0.002   0.000   0.000   0.002   0.000   0.000   0.000   0.000
  0.000  -0.001   0.000   0.000  -0.000  -0.001   0.000   0.000   0.000  -0.001  -0.003   0.000  -0.000   0.000   0.000   0.001
  0.000   0.001  -0.000  -0.000  -0.000   0.000   0.001   0.000   0.000  -0.002   0.002   0.000  -0.000  -0.000   0.001  -0.001
 -0.000   0.000  -0.000   0.000   0.000  -0.000  -0.000  -0.001   0.001  -0.000   0.000  -0.001   0.000  -0.000  -0.000   0.000
  0.000  -0.002   0.000   0.000  -0.000  -0.000   0.000   0.000   0.000   0.001   0.000  -0.000   0.004   0.000  -0.000  -0.000
  0.000   0.000   0.000   0.000  -0.000   0.000   0.000   0.001  -0.002  -0.000  -0.000   0.001   0.000   0.000   0.000  -0.000


------------------------ aborting loop because EDIFF is reached ----------------------------------------


 


 total charge     
 
# of ion       s       p       d       f       tot
--------------------------------------------------
    1        1.999   5.695   0.482   0.186   8.363
    2        1.998   5.697   0.477   0.185   8.357
    3        1.999   5.695   0.482   0.186   8.363
    4        1.998   5.695   0.473   0.183   8.349
    5        0.336   0.522   4.871   0.000   5.730
    6        0.294   0.432   4.900   0.000   5.626
    7        0.336   0.522   4.872   0.000   5.730
    8        0.391   0.556   8.322   0.000   9.268
    9        1.563   3.455   0.000   0.000   5.018
   10        1.563   3.455   0.000   0.000   5.018
   11        1.560   3.455   0.000   0.000   5.016
   12        1.560   3.455   0.000   0.000   5.016
   13        1.560   3.455   0.000   0.000   5.016
   14        1.563   3.455   0.000   0.000   5.018
   15        1.563   3.455   0.000   0.000   5.018
   16        1.560   3.455   0.000   0.000   5.016
   17        1.565   3.455   0.000   0.000   5.020
   18        1.563   3.450   0.000   0.000   5.013
   19        1.565   3.455   0.000   0.000   5.020
   20        1.555   3.458   0.000   0.000   5.012
--------------------------------------------------
tot         28.093  66.272  24.880   0.741 119.987

 


 magnetization (x)
 
# of ion       s       p       d       f       tot
--------------------------------------------------
    1        0.000   0.001   0.009   0.005   0.015
    2        0.001   0.001   0.013   0.007   0.022
    3        0.000   0.001   0.009   0.005   0.015
    4        0.000   0.000   0.007   0.004   0.011
    5        0.025   0.031   3.536   0.000   3.592
    6        0.021   0.021   3.926   0.000   3.967
    7        0.025   0.031   3.536   0.000   3.593
    8        0.013   0.004   1.706   0.000   1.723
    9        0.005  -0.035   0.000   0.000  -0.030
   10        0.005  -0.035   0.000   0.000  -0.030
   11        0.006  -0.007   0.000   0.000  -0.001
   12        0.006  -0.007   0.000   0.000  -0.001
   13        0.006  -0.007   0.000   0.000  -0.001
   14        0.005  -0.035   0.000   0.000  -0.030
   15        0.005  -0.035   0.000   0.000  -0.030
   16        0.006  -0.007   0.000   0.000  -0.001
   17        0.006  -0.047   0.000   0.000  -0.042
   18        0.004  -0.048   0.000   0.000  -0.044
   19        0.006  -0.048   0.000   0.000  -0.042
   20        0.006   0.026   0.000   0.000   0.032
--------------------------------------------------
tot          0.149  -0.195  12.742   0.021  12.718

 
    CHARGE:  cpu time    0.1157: real time    0.1160
    FORLOC:  cpu time    0.0058: real time    0.0058
    FORNL :  cpu time    0.6569: real time    0.6591
    STRESS:  cpu time    1.9848: real time    1.9922
    FORCOR:  cpu time    0.0524: real time    0.0546
    FORHAR:  cpu time    0.0106: real time    0.0111
    MIXING:  cpu time    0.0031: real time    0.0031
    OFIELD:  cpu time    0.0001: real time    0.0002

  FORCE on cell =-STRESS in cart. coord.  units (eV):
  Direction    XX          YY          ZZ          XY          YZ          ZX
  --------------------------------------------------------------------------------------
  Alpha Z   643.39699   643.39699   643.39699
  Ewald   -3222.25210 -3308.51611 -3308.51611     0.00000    30.38622     0.00000
  Hartree   759.03719   683.76793   683.76793     0.00000    33.39169    -0.00000
  E(xc)    -676.84730  -676.94590  -676.94590     0.00000    -0.02063    -0.00000
  Local    -500.61875  -338.99849  -338.99849    -0.00000   -63.68613    -0.00000
  n-local   264.28788   263.90659   263.90170    -0.29698     0.29025    -0.29858
  augment   181.29566   180.77599   180.77599     0.00000     0.00627     0.00000
  Kinetic  2551.39370  2551.50084  2551.52745     0.53289    -0.37152     0.53379
  Fock        0.00000     0.00000     0.00000     0.00000     0.00000     0.00000
  -------------------------------------------------------------------------------------
  Total      -0.30673    -1.10130    -1.10130     0.00000    -0.00380     0.00000
  in kB      -2.04643    -7.34760    -7.34760     0.00000    -0.02538     0.00000
  external pressure =       -5.58 kB  Pullay stress =        0.00 kB


 VOLUME and BASIS-vectors are now :
 -----------------------------------------------------------------------------
  energy-cutoff  :      520.00
  volume of cell :      240.14
      direct lattice vectors                 reciprocal lattice vectors
     3.910000880  0.000000000  0.000000000     0.255754418  0.000000000  0.000000000
     0.000000000  3.920003217  3.920003217     0.000000000  0.127550916  0.127550916
     0.000000000 -7.833887270  7.833887270     0.000000000 -0.063825274  0.063825274

  length of vectors
     3.910000880  5.543721714 11.078789623     0.255754418  0.180384235  0.090262568


 FORCES acting on ions
    electron-ion (+dipol)            ewald-force                    non-local-force                 convergence-correction
 -----------------------------------------------------------------------------------------------
   -.163E-13 0.110E+03 -.110E+03   0.801E-14 -.109E+03 0.109E+03   0.542E-19 -.856E+00 0.856E+00   0.342E-14 -.614E-01 0.614E-01
   -.523E-14 -.486E-13 0.300E-13   0.185E-13 -.533E-14 0.622E-13   0.000E+00 0.542E-19 0.000E+00   0.559E-14 -.694E-13 0.816E-13
   -.567E-14 -.110E+03 0.110E+03   0.260E-13 0.109E+03 -.109E+03   0.000E+00 0.856E+00 -.856E+00   0.913E-14 0.614E-01 -.614E-01
   -.596E-14 0.788E-13 -.115E-12   0.187E-13 0.115E-13 -.735E-14   0.000E+00 0.542E-19 -.542E-19   0.508E-14 0.556E-13 -.839E-14
   0.698E-13 0.391E+02 -.391E+02   0.402E-13 -.389E+02 0.389E+02   0.000E+00 -.164E+00 0.164E+00   0.118E-13 -.364E-01 0.364E-01
   0.623E-13 0.853E-12 0.101E-11   0.621E-14 0.535E-13 0.888E-13   0.000E+00 0.000E+00 0.000E+00   0.354E-14 -.695E-13 0.613E-13
   0.553E-13 -.391E+02 0.391E+02   -.294E-13 0.389E+02 -.389E+02   0.000E+00 0.164E+00 -.164E+00   -.210E-14 0.364E-01 -.364E-01
   0.293E-12 0.637E-11 0.409E-12   0.310E-15 0.116E-15 -.140E-13   0.000E+00 0.000E+00 0.000E+00   0.431E-13 0.128E-13 -.691E-13
   0.113E-12 -.133E+02 0.461E+02   -.715E-14 0.126E+02 -.489E+02   0.217E-18 0.641E+00 0.277E+01   0.320E-13 0.226E-01 -.593E-02
   0.131E-12 0.133E+02 -.461E+02   -.540E-14 -.126E+02 0.489E+02   -.217E-18 -.641E+00 -.277E+01   0.215E-13 -.226E-01 0.593E-02
   0.117E-12 0.162E+02 -.651E+02   -.667E-14 -.156E+02 0.606E+02   0.000E+00 -.594E+00 0.445E+01   0.274E-13 -.178E-01 0.614E-01
   0.115E-12 -.162E+02 0.651E+02   -.450E-14 0.156E+02 -.606E+02   0.000E+00 0.594E+00 -.445E+01   0.295E-13 0.178E-01 -.614E-01
   0.116E-12 -.651E+02 0.162E+02   0.141E-13 0.606E+02 -.156E+02   -.434E-18 0.445E+01 -.594E+00   0.222E-13 0.614E-01 -.178E-01
   0.111E-12 -.461E+02 0.133E+02   0.249E-14 0.489E+02 -.126E+02   0.000E+00 -.277E+01 -.641E+00   0.183E-13 0.593E-02 -.226E-01
   0.122E-12 0.461E+02 -.133E+02   -.189E-13 -.489E+02 0.126E+02   0.542E-18 0.277E+01 0.641E+00   0.315E-13 -.593E-02 0.226E-01
   0.116E-12 0.651E+02 -.162E+02   -.221E-13 -.606E+02 0.156E+02   0.434E-18 -.445E+01 0.594E+00   0.246E-13 -.614E-01 0.178E-01
   -.215E-14 -.350E+02 0.350E+02   0.179E-14 0.350E+02 -.350E+02   0.000E+00 -.109E+00 0.109E+00   0.142E-13 0.289E-01 -.289E-01
   -.696E-14 -.227E-12 0.578E-12   -.288E-14 -.172E-13 0.287E-14   0.000E+00 0.339E-20 -.339E-20   0.140E-13 -.488E-13 0.485E-13
   -.112E-13 0.350E+02 -.350E+02   -.291E-13 -.350E+02 0.350E+02   0.000E+00 0.109E+00 -.109E+00   0.695E-14 -.289E-01 0.289E-01
   -.891E-14 0.220E-12 0.145E-12   0.401E-14 0.142E-13 0.129E-15   0.000E+00 0.000E+00 -.339E-20   0.752E-14 0.326E-13 -.559E-13
 -----------------------------------------------------------------------------------------------
   0.136E-11 0.992E-12 0.113E-10   0.141E-13 -.568E-13 0.214E-13   0.596E-18 0.874E-15 -.777E-15   0.329E-12 0.635E-13 -.352E-14
 
 
 POSITION                                       TOTAL-FORCE (eV/Angst)
 -----------------------------------------------------------------------------------
      0.00000      0.09804      3.82197         0.000000      0.045389     -0.045389
      0.00000     -3.91694      3.91694        -0.000000     -0.000000      0.000000
      0.00000     -4.01192      7.93192        -0.000000     -0.045389      0.045389
      0.00000      0.00000      0.00000        -0.000000     -0.000000      0.000000
      1.95500     -1.96134      1.96134        -0.000000      0.020878     -0.020878
      1.95500     -1.95694      5.87695        -0.000000     -0.000000     -0.000000
      1.95500     -5.87255      5.87255         0.000000     -0.020878      0.020878
      1.95500      1.96000      1.96000        -0.000000     -0.000000      0.000000
      1.95500     -1.94176      7.87307        -0.000000      0.016883     -0.050708
      1.95500     -1.97212      3.88082        -0.000000     -0.016883      0.050708
      1.95500      1.95162      3.95713        -0.000000      0.005094      0.002183
      1.95500     -5.86550      7.79676        -0.000000     -0.005094     -0.002183
      1.95500     -3.87676      9.78551        -0.000000      0.002183      0.005094
      1.95500     -3.95307      5.86176        -0.000000      0.050708     -0.016883
      1.95500      0.03919      5.89213        -0.000000     -0.050708      0.016883
      1.95500     -0.03712      1.96839        -0.000000     -0.002183     -0.005094
      0.00000     -5.87608      5.87608        -0.000000     -0.040382      0.040382
      0.00000     -1.95694      5.87695        -0.000000     -0.000000      0.000000
      0.00000     -1.95780      1.95780        -0.000000      0.040382     -0.040382
      0.00000      1.96000      1.96000        -0.000000     -0.000000      0.000000
 -----------------------------------------------------------------------------------
    total drift:                                0.000000      0.000000      0.000000


--------------------------------------------------------------------------------------------------------



  FREE ENERGIE OF THE ION-ELECTRON SYSTEM (eV)
  ---------------------------------------------------
  free  energy   TOTEN  =      -153.00452152 eV

  energy  without entropy=     -153.00452152  energy(sigma->0) =     -153.00452152
 


--------------------------------------------------------------------------------------------------------


    POTLOK:  cpu time    0.0555: real time    0.0557


--------------------------------------------------------------------------------------------------------


     LOOP+:  cpu time   57.5568: real time   57.8590
    4ORBIT:  cpu time    0.0000: real time    0.0000
 


 total charge     
 
# of ion       s       p       d       f       tot
--------------------------------------------------
    1        1.999   5.695   0.482   0.186   8.363
    2        1.998   5.697   0.477   0.185   8.357
    3        1.999   5.695   0.482   0.186   8.363
    4        1.998   5.695   0.473   0.183   8.349
    5        0.336   0.522   4.871   0.000   5.730
    6        0.294   0.432   4.900   0.000   5.626
    7        0.336   0.522   4.872   0.000   5.730
    8        0.391   0.556   8.322   0.000   9.268
    9        1.563   3.455   0.000   0.000   5.018
   10        1.563   3.455   0.000   0.000   5.018
   11        1.560   3.455   0.000   0.000   5.016
   12        1.560   3.455   0.000   0.000   5.016
   13        1.560   3.455   0.000   0.000   5.016
   14        1.563   3.455   0.000   0.000   5.018
   15        1.563   3.455   0.000   0.000   5.018
   16        1.560   3.455   0.000   0.000   5.016
   17        1.565   3.455   0.000   0.000   5.020
   18        1.563   3.450   0.000   0.000   5.013
   19        1.565   3.455   0.000   0.000   5.020
   20        1.555   3.458   0.000   0.000   5.012
--------------------------------------------------
tot         28.093  66.272  24.880   0.741 119.987

 


 magnetization (x)
 
# of ion       s       p       d       f       tot
--------------------------------------------------
    1        0.000   0.001   0.009   0.005   0.015
    2        0.001   0.001   0.013   0.007   0.022
    3        0.000   0.001   0.009   0.005   0.015
    4        0.000   0.000   0.007   0.004   0.011
    5        0.025   0.031   3.536   0.000   3.592
    6        0.021   0.021   3.926   0.000   3.967
    7        0.025   0.031   3.536   0.000   3.593
    8        0.013   0.004   1.706   0.000   1.723
    9        0.005  -0.035   0.000   0.000  -0.030
   10        0.005  -0.035   0.000   0.000  -0.030
   11        0.006  -0.007   0.000   0.000  -0.001
   12        0.006  -0.007   0.000   0.000  -0.001
   13        0.006  -0.007   0.000   0.000  -0.001
   14        0.005  -0.035   0.000   0.000  -0.030
   15        0.005  -0.035   0.000   0.000  -0.030
   16        0.006  -0.007   0.000   0.000  -0.001
   17        0.006  -0.047   0.000   0.000  -0.042
   18        0.004  -0.048   0.000   0.000  -0.044
   19        0.006  -0.048   0.000   0.000  -0.042
   20        0.006   0.026   0.000   0.000   0.032
--------------------------------------------------
tot          0.149  -0.195  12.742   0.021  12.718

 
 BZINTS: Fermi energy:  7.887257;147.000000 electrons
         Band energy:-269.904892;  BLOECHL correction: -0.104875

 total amount of memory used by VASP MPI-rank0    60691. kBytes
=======================================================================

   base      :      30000. kBytes
   nonlr-proj:       4427. kBytes
   fftplans  :       1760. kBytes
   grid      :       4955. kBytes
   one-center:        196. kBytes
   wavefun   :      19353. kBytes
 
  
  
 General timing and accounting informations for this job:
 ========================================================
  
                  Total CPU time used (sec):       64.096
                            User time (sec):       62.025
                          System time (sec):        2.071
                         Elapsed time (sec):       64.521
  
                   Maximum memory used (kb):       97940.
                   Average memory used (kb):           0.
  
                          Minor page faults:        34609
                          Major page faults:            0
                 Voluntary context switches:         1188
