 vasp.5.4.4.18Apr17-6-g9f103f2a35 (build Oct 03 2018 13:58:34) complex          
  
 executed on             LinuxIFC date 2019.06.04  01:28:56
 running on   40 total cores
 distrk:  each k-point on   20 cores,    2 groups
 distr:  one band on NCORES_PER_BAND=  10 cores,    2 groups


--------------------------------------------------------------------------------------------------------


 INCAR:
 POTCAR:    PAW_PBE La 06Sep2000                  
 POTCAR:    PAW_PBE Mn 06Sep2000                  
 POTCAR:    PAW_PBE Ni 02Aug2007                  
 POTCAR:    PAW_PBE O 08Apr2002                   

 ----------------------------------------------------------------------------- 
|                                                                             |
|           W    W    AA    RRRRR   N    N  II  N    N   GGGG   !!!           |
|           W    W   A  A   R    R  NN   N  II  NN   N  G    G  !!!           |
|           W    W  A    A  R    R  N N  N  II  N N  N  G       !!!           |
|           W WW W  AAAAAA  RRRRR   N  N N  II  N  N N  G  GGG   !            |
|           WW  WW  A    A  R   R   N   NN  II  N   NN  G    G                |
|           W    W  A    A  R    R  N    N  II  N    N   GGGG   !!!           |
|                                                                             |
|      You have enabled k-point parallelism (KPAR>1).                         |
|      This developmental code was originally  written by Paul Kent at ORNL,  |
|      and carefully double checked in Vienna.                                |
|      GW as well as linear response parallelism added by Martijn Marsman     |
|      and Georg Kresse.                                                      |
|      Carefully verify results versus KPAR=1.                                |
|      Report problems to Paul Kent and Vienna.                               |
|                                                                             |
 ----------------------------------------------------------------------------- 

 POTCAR:    PAW_PBE La 06Sep2000                  
   VRHFIN =La : [core=Kr4d]                                                     
   LEXCH  = PE                                                                  
   EATOM  =   865.9763 eV,   63.6475 Ry                                         
                                                                                
   TITEL  = PAW_PBE La 06Sep2000                                                
   LULTRA =        F    use ultrasoft PP ?                                      
   IUNSCR =        1    unscreen: 0-lin 1-nonlin 2-no                           
   RPACOR =    2.300    partial core radius                                     
   POMASS =  138.900; ZVAL   =   11.000    mass and valenz                      
   RCORE  =    2.800    outmost cutoff radius                                   
   RWIGS  =    2.900; RWIGS  =    1.535    wigner-seitz radius (au A)           
   ENMAX  =  219.292; ENMIN  =  164.469 eV                                      
   RCLOC  =    1.601    cutoff for local pot                                    
   LCOR   =        T    correct aug charges                                     
   LPAW   =        T    paw PP                                                  
   EAUG   =  583.575                                                            
   DEXC   =    0.000                                                            
   RMAX   =    2.853    core radius for proj-oper                               
   RAUG   =    1.300    factor for augmentation sphere                          
   RDEP   =    2.802    radius for radial grids                                 
   RDEPT  =    2.156    core radius for aug-charge                              
                                                                                
   Atomic configuration                                                         
   14 entries                                                                   
     n  l   j            E        occ.                                          
     1  0  0.50    -38741.0879   2.0000                                         
     2  0  0.50     -6166.6801   2.0000                                         
     2  1  1.50     -5526.1593   6.0000                                         
     3  0  0.50     -1319.0200   2.0000                                         
     3  1  1.50     -1114.5963   6.0000                                         
     3  2  2.50      -821.1793  10.0000                                         
     4  0  0.50      -266.3851   2.0000                                         
     4  1  1.50      -199.9276   6.0000                                         
     4  2  2.50      -103.8239  10.0000                                         
     5  0  0.50       -38.9172   2.0000                                         
     6  0  0.50        -3.6792   2.0000                                         
     5  1  1.50       -22.3948   6.0000                                         
     5  2  2.50        -3.0911   0.9999                                         
     4  3  2.50        -4.3603   0.0001                                         
   Description                                                                  
     l       E           TYP  RCUT    TYP  RCUT                                 
     0    -38.9171645     23  2.800                                             
     0     -3.6792381     23  2.800                                             
     1    -22.3948300     23  2.500                                             
     1     27.2116520     23  2.500                                             
     2     -3.0910934     23  2.500                                             
     2      1.0119135     23  2.500                                             
     3     -4.3602911     23  2.800                                             
     3     -5.7208737     23  2.800                                             
  local pseudopotential read in
  partial core-charges read in
  partial kinetic energy density read in
  atomic valenz-charges read in
  non local Contribution for L=           0  read in
    real space projection operators read in
  non local Contribution for L=           0  read in
    real space projection operators read in
  non local Contribution for L=           1  read in
    real space projection operators read in
  non local Contribution for L=           1  read in
    real space projection operators read in
  non local Contribution for L=           2  read in
    real space projection operators read in
  non local Contribution for L=           2  read in
    real space projection operators read in
  non local Contribution for L=           3  read in
    real space projection operators read in
  non local Contribution for L=           3  read in
    real space projection operators read in
    PAW grid and wavefunctions read in
 
   number of l-projection  operators is LMAX  =           8
   number of lm-projection operators is LMMAX =          32
 
 POTCAR:    PAW_PBE Mn 06Sep2000                  
   VRHFIN =Mn: d6 s1                                                            
   LEXCH  = PE                                                                  
   EATOM  =   416.7541 eV,   30.6306 Ry                                         
                                                                                
   TITEL  = PAW_PBE Mn 06Sep2000                                                
   LULTRA =        F    use ultrasoft PP ?                                      
   IUNSCR =        1    unscreen: 0-lin 1-nonlin 2-no                           
   RPACOR =    2.000    partial core radius                                     
   POMASS =   54.938; ZVAL   =    7.000    mass and valenz                      
   RCORE  =    2.300    outmost cutoff radius                                   
   RWIGS  =    2.500; RWIGS  =    1.323    wigner-seitz radius (au A)           
   ENMAX  =  269.864; ENMIN  =  202.398 eV                                      
   RCLOC  =    1.725    cutoff for local pot                                    
   LCOR   =        T    correct aug charges                                     
   LPAW   =        T    paw PP                                                  
   EAUG   =  500.711                                                            
   DEXC   =    0.000                                                            
   RMAX   =    2.343    core radius for proj-oper                               
   RAUG   =    1.300    factor for augmentation sphere                          
   RDEP   =    2.338    radius for radial grids                                 
   RDEPT  =    1.911    core radius for aug-charge                              
                                                                                
   Atomic configuration                                                         
    9 entries                                                                   
     n  l   j            E        occ.                                          
     1  0  0.50     -6424.8288   2.0000                                         
     2  0  0.50      -739.1154   2.0000                                         
     2  1  1.50      -625.3949   6.0000                                         
     3  0  0.50       -81.6100   2.0000                                         
     3  1  1.50       -50.4667   6.0000                                         
     3  2  2.50        -3.3745   6.0000                                         
     4  0  0.50        -4.1331   1.0000                                         
     4  1  0.50        -4.0817   0.0000                                         
     4  3  2.50        -1.3606   0.0000                                         
   Description                                                                  
     l       E           TYP  RCUT    TYP  RCUT                                 
     2     -3.3744664     23  2.300                                             
     2     -4.7350490     23  2.300                                             
     0     -4.1331408     23  2.300                                             
     0      7.6656614     23  2.300                                             
     1     -2.7211652     23  2.300                                             
     1     20.4087390     23  2.300                                             
  local pseudopotential read in
  partial core-charges read in
  partial kinetic energy density read in
  atomic valenz-charges read in
  non local Contribution for L=           2  read in
    real space projection operators read in
  non local Contribution for L=           2  read in
    real space projection operators read in
  non local Contribution for L=           0  read in
    real space projection operators read in
  non local Contribution for L=           0  read in
    real space projection operators read in
  non local Contribution for L=           1  read in
    real space projection operators read in
  non local Contribution for L=           1  read in
    real space projection operators read in
    PAW grid and wavefunctions read in
 
   number of l-projection  operators is LMAX  =           6
   number of lm-projection operators is LMMAX =          18
 
 POTCAR:    PAW_PBE Ni 02Aug2007                  
   VRHFIN =Ni:                                                                  
   LEXCH  = PE                                                                  
   EATOM  =  1077.6739 eV,   79.2068 Ry                                         
                                                                                
   TITEL  = PAW_PBE Ni 02Aug2007                                                
   LULTRA =        F    use ultrasoft PP ?                                      
   IUNSCR =        1    unscreen: 0-lin 1-nonlin 2-no                           
   RPACOR =    2.000    partial core radius                                     
   POMASS =   58.690; ZVAL   =   10.000    mass and valenz                      
   RCORE  =    2.300    outmost cutoff radius                                   
   RWIGS  =    2.430; RWIGS  =    1.286    wigner-seitz radius (au A)           
   ENMAX  =  269.532; ENMIN  =  202.149 eV                                      
   RCLOC  =    1.201    cutoff for local pot                                    
   LCOR   =        T    correct aug charges                                     
   LPAW   =        T    paw PP                                                  
   EAUG   =  544.565                                                            
   DEXC   =    0.000                                                            
   RMAX   =    2.357    core radius for proj-oper                               
   RAUG   =    1.300    factor for augmentation sphere                          
   RDEP   =    2.390    radius for radial grids                                 
   RDEPT  =    1.838    core radius for aug-charge                              
                                                                                
   Atomic configuration                                                         
    9 entries                                                                   
     n  l   j            E        occ.                                          
     1  0  0.50     -8206.4253   2.0000                                         
     2  0  0.50      -976.1748   2.0000                                         
     2  1  1.50      -839.0571   6.0000                                         
     3  0  0.50      -105.9991   2.0000                                         
     3  1  1.50       -66.4603   6.0000                                         
     3  2  2.50        -4.6458   9.0000                                         
     4  0  0.50        -4.4926   1.0000                                         
     4  1  1.50        -4.0817   0.0000                                         
     4  3  2.50        -1.3606   0.0000                                         
   Description                                                                  
     l       E           TYP  RCUT    TYP  RCUT                                 
     2     -4.6457903     23  2.300                                             
     2     -6.0063729     23  2.300                                             
     0     -4.4925590     23  2.300                                             
     0      5.0102601     23  2.300                                             
     1     -2.7211652     23  2.300                                             
     1     16.5183231     23  2.300                                             
  local pseudopotential read in
  partial core-charges read in
  partial kinetic energy density read in
  atomic valenz-charges read in
  non local Contribution for L=           2  read in
    real space projection operators read in
  non local Contribution for L=           2  read in
    real space projection operators read in
  non local Contribution for L=           0  read in
    real space projection operators read in
  non local Contribution for L=           0  read in
    real space projection operators read in
  non local Contribution for L=           1  read in
    real space projection operators read in
  non local Contribution for L=           1  read in
    real space projection operators read in
    PAW grid and wavefunctions read in
 
   number of l-projection  operators is LMAX  =           6
   number of lm-projection operators is LMMAX =          18
 
 POTCAR:    PAW_PBE O 08Apr2002                   
   VRHFIN =O: s2p4                                                              
   LEXCH  = PE                                                                  
   EATOM  =   432.3788 eV,   31.7789 Ry                                         
                                                                                
   TITEL  = PAW_PBE O 08Apr2002                                                 
   LULTRA =        F    use ultrasoft PP ?                                      
   IUNSCR =        1    unscreen: 0-lin 1-nonlin 2-no                           
   RPACOR =    1.200    partial core radius                                     
   POMASS =   16.000; ZVAL   =    6.000    mass and valenz                      
   RCORE  =    1.520    outmost cutoff radius                                   
   RWIGS  =    1.550; RWIGS  =    0.820    wigner-seitz radius (au A)           
   ENMAX  =  400.000; ENMIN  =  300.000 eV                                      
   ICORE  =        2    local potential                                         
   LCOR   =        T    correct aug charges                                     
   LPAW   =        T    paw PP                                                  
   EAUG   =  605.392                                                            
   DEXC   =    0.000                                                            
   RMAX   =    1.553    core radius for proj-oper                               
   RAUG   =    1.300    factor for augmentation sphere                          
   RDEP   =    1.550    radius for radial grids                                 
   RDEPT  =    1.329    core radius for aug-charge                              
                                                                                
   Atomic configuration                                                         
    4 entries                                                                   
     n  l   j            E        occ.                                          
     1  0  0.50      -514.6923   2.0000                                         
     2  0  0.50       -23.9615   2.0000                                         
     2  1  0.50        -9.0305   4.0000                                         
     3  2  1.50        -9.5241   0.0000                                         
   Description                                                                  
     l       E           TYP  RCUT    TYP  RCUT                                 
     0    -23.9615318     23  1.200                                             
     0     -9.5240782     23  1.200                                             
     1     -9.0304911     23  1.520                                             
     1      8.1634956     23  1.520                                             
     2     -9.5240782      7  1.500                                             
  local pseudopotential read in
  partial core-charges read in
  partial kinetic energy density read in
  kinetic energy density of atom read in
  atomic valenz-charges read in
  non local Contribution for L=           0  read in
    real space projection operators read in
  non local Contribution for L=           0  read in
    real space projection operators read in
  non local Contribution for L=           1  read in
    real space projection operators read in
  non local Contribution for L=           1  read in
    real space projection operators read in
    PAW grid and wavefunctions read in
 
   number of l-projection  operators is LMAX  =           4
   number of lm-projection operators is LMMAX =           8
 
 Optimization of the real space projectors (new method)

 maximal supplied QI-value         = 13.42
 optimisation between [QCUT,QGAM] = [ 11.67, 23.35] = [ 38.16,152.62] Ry 
 Optimized for a Real-space Cutoff    1.63 Angstroem

   l    n(q)    QCUT    max X(q) W(low)/X(q) W(high)/X(q)  e(spline) 
   0     11    11.673    13.882    0.27E-04    0.79E-05    0.11E-06
   0     11    11.673    12.184    0.39E-04    0.13E-04    0.19E-06
   1     11    11.673     4.523    0.73E-05    0.76E-05    0.12E-06
   1     11    11.673     4.424    0.87E-05    0.13E-04    0.19E-06
   2     10    11.673    52.481    0.65E-04    0.36E-04    0.18E-06
   2     10    11.673    38.501    0.61E-04    0.33E-04    0.17E-06
   3     10    11.673    65.631    0.17E-03    0.14E-03    0.37E-06
   3     10    11.673    56.854    0.17E-03    0.14E-03    0.37E-06
 Optimization of the real space projectors (new method)

 maximal supplied QI-value         = 16.25
 optimisation between [QCUT,QGAM] = [ 11.54, 23.24] = [ 37.28,151.24] Ry 
 Optimized for a Real-space Cutoff    1.53 Angstroem

   l    n(q)    QCUT    max X(q) W(low)/X(q) W(high)/X(q)  e(spline) 
   2     10    11.539   110.144    0.12E-03    0.13E-03    0.25E-06
   2     10    11.539   103.200    0.12E-03    0.13E-03    0.25E-06
   0     11    11.539    68.437    0.46E-04    0.21E-04    0.32E-06
   0     11    11.539    33.971    0.37E-04    0.19E-04    0.29E-06
   1     10    11.539    17.065    0.51E-04    0.22E-04    0.13E-06
   1     10    11.539    12.540    0.41E-04    0.18E-04    0.11E-06
 Optimization of the real space projectors (new method)

 maximal supplied QI-value         = 16.25
 optimisation between [QCUT,QGAM] = [ 11.54, 23.24] = [ 37.28,151.24] Ry 
 Optimized for a Real-space Cutoff    1.45 Angstroem

   l    n(q)    QCUT    max X(q) W(low)/X(q) W(high)/X(q)  e(spline) 
   2      9    11.539    60.317    0.19E-03    0.47E-04    0.16E-06
   2      9    11.539    55.921    0.19E-03    0.48E-04    0.16E-06
   0     10    11.539    51.690    0.80E-04    0.50E-04    0.24E-06
   0     10    11.539    30.015    0.73E-04    0.45E-04    0.22E-06
   1     10    11.539    18.849    0.87E-04    0.16E-03    0.71E-07
   1     10    11.539    14.624    0.73E-04    0.13E-03    0.64E-07
 Optimization of the real space projectors (new method)

 maximal supplied QI-value         = 24.76
 optimisation between [QCUT,QGAM] = [ 11.64, 23.27] = [ 37.91,151.63] Ry 
 Optimized for a Real-space Cutoff    1.14 Angstroem

   l    n(q)    QCUT    max X(q) W(low)/X(q) W(high)/X(q)  e(spline) 
   0      8    11.635    20.381    0.10E-03    0.33E-03    0.24E-06
   0      8    11.635    15.268    0.11E-03    0.35E-03    0.26E-06
   1      7    11.635     5.964    0.24E-03    0.31E-03    0.30E-06
   1      7    11.635     5.382    0.22E-03    0.25E-03    0.26E-06
  PAW_PBE La 06Sep2000                  :
 energy of atom  1       EATOM= -865.9763
 kinetic energy error for atom=    0.0009 (will be added to EATOM!!)
  PAW_PBE Mn 06Sep2000                  :
 energy of atom  2       EATOM= -416.7541
 kinetic energy error for atom=    0.0024 (will be added to EATOM!!)
  PAW_PBE Ni 02Aug2007                  :
 energy of atom  3       EATOM=-1077.6739
 kinetic energy error for atom=    0.0030 (will be added to EATOM!!)
  PAW_PBE O 08Apr2002                   :
 energy of atom  4       EATOM= -432.3788
 kinetic energy error for atom=    0.0208 (will be added to EATOM!!)
 
 
 POSCAR: SCEL6_3_1_2_0_2_1/5                     
  positions in direct lattice
  velocities in cartesian coordinates
 exchange correlation table for  LEXCH =        8
   RHO(1)=    0.500       N(1)  =     2000
   RHO(2)=  100.500       N(2)  =     4000
 


--------------------------------------------------------------------------------------------------------


 ion  position               nearest neighbor table
   1  0.838  0.822  0.501-  15 2.65  27 2.69  23 2.69  28 2.70  24 2.70  17 2.74  17 2.74  19 2.78
                            29 2.78  30 2.79  20 2.79  10 3.29   9 3.29  11 3.35  11 3.35  12 3.35
   2  0.667  0.667  1.000-  28 2.73  24 2.73  23 2.73  27 2.73  16 2.74  16 2.74  29 2.74  19 2.74
                            26 2.74  22 2.74  14 2.74  18 2.74  11 3.34  11 3.34   9 3.34   9 3.34
   3  0.495  0.511  0.499-  17 2.65  28 2.69  24 2.69  27 2.70  23 2.70  15 2.74  15 2.74  26 2.78
                            22 2.78  25 2.79  21 2.79  12 3.29  11 3.29   9 3.35   9 3.35  10 3.35
   4  0.332  0.341  0.995-  27 2.68  23 2.68  16 2.69  22 2.73  26 2.73  25 2.74  21 2.74  14 2.74
                            14 2.74  30 2.79  20 2.79  18 2.79  11 3.29   9 3.32  10 3.33  10 3.33
   5  0.167  0.167  0.500-  20 2.73  30 2.73  25 2.73  21 2.73  26 2.73  22 2.73  29 2.73  19 2.73
                            13 2.74  13 2.74  17 2.74  15 2.74  12 3.34  10 3.34  11 3.35   9 3.35
   6  0.001  0.992  0.005-  28 2.68  24 2.68  16 2.69  29 2.73  19 2.73  30 2.74  20 2.74  18 2.74
                            18 2.74  25 2.79  21 2.79  14 2.79   9 3.29  11 3.32  12 3.33  12 3.33
   7  0.751  0.249  0.249-  14 1.88  30 1.90  20 1.90  26 1.90  22 1.90  13 1.94   5 3.35   5 3.35
                             2 3.36   6 3.36   4 3.37   4 3.37   1 3.43   3 3.43
   8  0.583  0.084  0.751-  18 1.88  25 1.90  21 1.90  19 1.90  29 1.90  13 1.94   5 3.35   5 3.35
                             2 3.36   4 3.36   6 3.37   6 3.37   3 3.43   1 3.43
   9  0.084  0.582  0.249-  15 1.91  16 1.92  28 1.95  24 1.95  22 1.97  26 1.97   6 3.29   1 3.29
                             4 3.32   2 3.34   2 3.34   3 3.35   3 3.35   5 3.35
  10  0.918  0.415  0.750-  23 1.94  27 1.94  15 1.95  25 1.96  21 1.96  14 1.97   1 3.29   4 3.33
                             4 3.33   5 3.34   3 3.35   3 3.35   2 3.36
  11  0.249  0.751  0.751-  17 1.91  16 1.92  27 1.95  23 1.95  29 1.97  19 1.97   4 3.29   3 3.29
                             6 3.32   2 3.34   2 3.34   1 3.35   1 3.35   5 3.35
  12  0.416  0.919  0.250-  28 1.94  24 1.94  17 1.95  20 1.96  30 1.96  18 1.97   3 3.29   6 3.33
                             6 3.33   5 3.34   1 3.35   1 3.35   2 3.36
  13  0.667  0.167  0.500-   8 1.94   7 1.94   5 2.74   5 2.74
  14  0.832  0.331  0.005-   7 1.88  10 1.97   4 2.74   4 2.74   2 2.74   6 2.79
  15  0.001  0.501  0.497-   9 1.91  10 1.95   1 2.65   3 2.74   3 2.74   5 2.74
  16  0.167  0.667  0.000-   9 1.92  11 1.92   6 2.69   4 2.69   2 2.74   2 2.74
  17  0.332  0.832  0.503-  11 1.91  12 1.95   3 2.65   1 2.74   1 2.74   5 2.74
  18  0.502  0.002  0.995-   8 1.88  12 1.97   6 2.74   6 2.74   2 2.74   4 2.79
  19  0.418  0.921  0.750-   8 1.90  11 1.97   6 2.73   5 2.73   2 2.74   1 2.78
  20  0.585  0.086  0.250-   7 1.90  12 1.96   5 2.73   6 2.74   4 2.79   1 2.79
  21  0.748  0.247  0.750-   8 1.90  10 1.96   5 2.73   4 2.74   6 2.79   3 2.79
  22  0.915  0.413  0.250-   7 1.90   9 1.97   4 2.73   5 2.73   2 2.74   3 2.78
  23  0.083  0.583  0.751-  10 1.94  11 1.95   4 2.68   1 2.69   3 2.70   2 2.73
  24  0.251  0.750  0.249-  12 1.94   9 1.95   6 2.68   3 2.69   1 2.70   2 2.73
  25  0.255  0.247  0.750-   8 1.90  10 1.96   5 2.73   4 2.74   6 2.79   3 2.79
  26  0.423  0.413  0.250-   7 1.90   9 1.97   4 2.73   5 2.73   2 2.74   3 2.78
  27  0.584  0.583  0.751-  10 1.94  11 1.95   4 2.68   1 2.69   3 2.70   2 2.73
  28  0.750  0.750  0.249-  12 1.94   9 1.95   6 2.68   3 2.69   1 2.70   2 2.73
  29  0.911  0.921  0.750-   8 1.90  11 1.97   6 2.73   5 2.73   2 2.74   1 2.78
  30  0.078  0.086  0.250-   7 1.90  12 1.96   5 2.73   6 2.74   4 2.79   1 2.79
 
  LATTYP: Found a base centered monoclinic cell.
 ALAT       =    16.4460610808
 B/A-ratio  =     0.3326037949
 C/A-ratio  =     0.8148759955
 COS(beta)  =    -0.7757446727
  
  Lattice vectors:
  
 A1 = (  -7.7485048377,   3.8806149478,  -0.0042160396)
 A2 = (  -3.8806149575,   7.7485048281,  -0.0042160396)
 A3 = (   7.7499298900,  -7.7499298804,  -7.7121583472)


Analysis of symmetry for initial positions (statically):
=====================================================================
 Subroutine PRICEL returns:
 Original cell was already a primitive cell.
 

 Routine SETGRP: Setting up the symmetry group for a 
 base centered monoclinic supercell.


 Subroutine GETGRP returns: Found  2 space group operations
 (whereof  2 operations were pure point group operations)
 out of a pool of  4 trial point group operations.


The static configuration has the point symmetry C_1h.


Analysis of symmetry for dynamics (positions and initial velocities):
=====================================================================
 Subroutine PRICEL returns:
 Original cell was already a primitive cell.
 

 Routine SETGRP: Setting up the symmetry group for a 
 base centered monoclinic supercell.


 Subroutine GETGRP returns: Found  2 space group operations
 (whereof  2 operations were pure point group operations)
 out of a pool of  4 trial point group operations.


The dynamic configuration has the point symmetry C_1h.


Analysis of structural, dynamic, and magnetic symmetry:
=====================================================================
 Subroutine PRICEL returns:
 Original cell was already a primitive cell.
 

 Routine SETGRP: Setting up the symmetry group for a 
 base centered monoclinic supercell.


 Subroutine GETGRP returns: Found  2 space group operations
 (whereof  2 operations were pure point group operations)
 out of a pool of  4 trial point group operations.


The magnetic configuration has the point symmetry C_1h.


 Subroutine INISYM returns: Found  2 space group operations
 (whereof  2 operations are pure point group operations),
 and found     1 'primitive' translations

 
 
 KPOINTS: Automatic mesh                          

Automatic generation of k-mesh.
 generate k-points for:    4    3    3
Space group operators:
 irot       det(A)        alpha          n_x          n_y          n_z        tau_x        tau_y        tau_z
    1     1.000000     0.000000     1.000000     0.000000     0.000000     0.000000     0.000000     0.000000
    2    -1.000000   180.000000     0.707107     0.707107    -0.000000     0.000000     0.000000     0.000000
 
 Subroutine IBZKPT returns following result:
 ===========================================
 
 Found     19 irreducible k-points:
 
 Following reciprocal coordinates:
            Coordinates               Weight
  0.000000  0.000000  0.000000      1.000000
  0.250000 -0.000000  0.000000      2.000000
  0.500000 -0.000000  0.000000      1.000000
 -0.000000  0.333333  0.000000      2.000000
  0.250000  0.333333 -0.000000      2.000000
  0.500000  0.333333 -0.000000      2.000000
 -0.250000  0.333333 -0.000000      2.000000
 -0.000000  0.000000  0.333333      2.000000
  0.250000 -0.000000  0.333333      2.000000
  0.500000  0.000000  0.333333      2.000000
 -0.250000  0.000000  0.333333      2.000000
 -0.000000  0.333333  0.333333      2.000000
  0.250000  0.333333  0.333333      2.000000
  0.500000  0.333333  0.333333      2.000000
 -0.250000  0.333333  0.333333      2.000000
 -0.000000 -0.333333  0.333333      2.000000
  0.250000 -0.333333  0.333333      2.000000
  0.500000 -0.333333  0.333333      2.000000
 -0.250000 -0.333333  0.333333      2.000000
 
 Following cartesian coordinates:
            Coordinates               Weight
  0.000000  0.000000  0.000000      1.000000
  0.043070  0.021565 -0.010805      2.000000
  0.086140  0.043129 -0.021611      1.000000
 -0.028658  0.028658 -0.014376      2.000000
  0.014412  0.050223 -0.025181      2.000000
  0.057482  0.071788 -0.035987      2.000000
 -0.071729  0.007094 -0.003570      2.000000
 -0.000016  0.000016  0.043190      2.000000
  0.043055  0.021580  0.032385      2.000000
  0.086125  0.043145  0.021579      2.000000
 -0.043086 -0.021549  0.053996      2.000000
 -0.028674  0.028674  0.028814      2.000000
  0.014396  0.050239  0.018009      2.000000
  0.057466  0.071803  0.007204      2.000000
 -0.071744  0.007110  0.039620      2.000000
  0.028643 -0.028643  0.057566      2.000000
  0.071713 -0.007078  0.046761      2.000000
  0.114783  0.014486  0.035955      2.000000
 -0.014427 -0.050207  0.068372      2.000000
 
 TETIRR: Found    106 inequivalent tetrahedra from      216


--------------------------------------------------------------------------------------------------------




 Dimension of arrays:
   k-points           NKPTS =     19   k-points in BZ     NKDIM =     19   number of bands    NBANDS=    146
   number of dos      NEDOS =    301   number of ions     NIONS =     30
   non local maximal  LDIM  =      8   non local SUM 2l+1 LMDIM =     32
   total plane-waves  NPLWV = 172032
   max r-space proj   IRMAX =   8993   max aug-charges    IRDMAX=  26091
   dimension x,y,z NGX =    42 NGY =   64 NGZ =   64
   dimension x,y,z NGXF=    84 NGYF=  128 NGZF=  128
   support grid    NGXF=    84 NGYF=  128 NGZF=  128
   ions per type =               6   2   4  18
   NGX,Y,Z   is equivalent  to a cutoff of  12.76, 12.28, 12.33 a.u.
   NGXF,Y,Z  is equivalent  to a cutoff of  25.53, 24.56, 24.65 a.u.

 SYSTEM =  final                                   
 POSCAR =  SCEL6_3_1_2_0_2_1/5                     

 Startparameter for this run:
   NWRITE =      2    write-flag & timer
   PREC   = accura    normal or accurate (medium, high low for compatibility)
   ISTART =      0    job   : 0-new  1-cont  2-samecut
   ICHARG =      1    charge: 1-file 2-atom 10-const
   ISPIN  =      2    spin polarized calculation?
   LNONCOLLINEAR =      F non collinear calculations
   LSORBIT =      F    spin-orbit coupling
   INIWAV =      1    electr: 0-lowe 1-rand  2-diag
   LASPH  =      F    aspherical Exc in radial PAW
   METAGGA=      F    non-selfconsistent MetaGGA calc.

 Electronic Relaxation 1
   ENCUT  =  520.0 eV  38.22 Ry    6.18 a.u.  10.17 16.11 16.05*2*pi/ulx,y,z
   ENINI  =  520.0     initial cutoff
   ENAUG  =  605.4 eV  augmentation charge cutoff
   NELM   =    100;   NELMIN=  2; NELMDL= -5     # of ELM steps 
   EDIFF  = 0.1E-02   stopping-criterion for ELM
   LREAL  =      T    real-space projection
   NLSPLINE    = F    spline interpolate recip. space projectors
   LCOMPAT=      F    compatible to vasp.4.4
   GGA_COMPAT  = T    GGA compatible to vasp.4.4-vasp.4.6
   LMAXPAW     = -100 max onsite density
   LMAXMIX     =    6 max onsite mixed and CHGCAR
   VOSKOWN=      0    Vosko Wilk Nusair interpolation
   ROPT   =   -0.00025  -0.00025  -0.00025  -0.00025
 Ionic relaxation
   EDIFFG = 0.1E-01   stopping-criterion for IOM
   NSW    =      0    number of steps for IOM
   NBLOCK =      1;   KBLOCK =      1    inner block; outer block 
   IBRION =     -1    ionic relax: 0-MD 1-quasi-New 2-CG
   NFREE  =      0    steps in history (QN), initial steepest desc. (CG)
   ISIF   =      2    stress and relaxation
   IWAVPR =     10    prediction:  0-non 1-charg 2-wave 3-comb
   ISYM   =      2    0-nonsym 1-usesym 2-fastsym
   LCORR  =      T    Harris-Foulkes like correction to forces

   POTIM  = 0.5000    time-step for ionic-motion
   TEIN   =    0.0    initial temperature
   TEBEG  =    0.0;   TEEND  =   0.0 temperature during run
   SMASS  =  -3.00    Nose mass-parameter (am)
   estimated Nose-frequenzy (Omega)   =  0.10E-29 period in steps =****** mass=  -0.684E-27a.u.
   SCALEE = 1.0000    scale energy and forces
   NPACO  =    256;   APACO  = 16.0  distance and # of slots for P.C.
   PSTRESS=    0.0 pullay stress

  Mass of Ions in am
   POMASS = 138.90 54.94 58.69 16.00
  Ionic Valenz
   ZVAL   =  11.00  7.00 10.00  6.00
  Atomic Wigner-Seitz radii
   RWIGS  =  -1.00 -1.00 -1.00 -1.00
  virtual crystal weights 
   VCA    =   1.00  1.00  1.00  1.00
   NELECT =     228.0000    total number of electrons
   NUPDOWN=      -1.0000    fix difference up-down

 DOS related values:
   EMIN   =  10.00;   EMAX   =-10.00  energy-range for DOS
   EFERMI =   0.00
   ISMEAR =    -5;   SIGMA  =   0.05  broadening in eV -4-tet -1-fermi 0-gaus

 Electronic relaxation 2 (details)
   IALGO  =     68    algorithm
   LDIAG  =      T    sub-space diagonalisation (order eigenvalues)
   LSUBROT=      F    optimize rotation matrix (better conditioning)
   TURBO    =      0    0=normal 1=particle mesh
   IRESTART =      0    0=no restart 2=restart with 2 vectors
   NREBOOT  =      0    no. of reboots
   NMIN     =      0    reboot dimension
   EREF     =   0.00    reference energy to select bands
   IMIX   =      4    mixing-type and parameters
     AMIX     =   0.40;   BMIX     =  1.00
     AMIX_MAG =   1.60;   BMIX_MAG =  1.00
     AMIN     =   0.10
     WC   =   100.;   INIMIX=   1;  MIXPRE=   1;  MAXMIX= -45

 Intra band minimization:
   WEIMIN = 0.0000     energy-eigenvalue tresh-hold
   EBREAK =  0.17E-05  absolut break condition
   DEPER  =   0.30     relativ break condition  

   TIME   =   0.40     timestep for ELM

  volume/ion in A,a.u.               =      11.57        78.09
  Fermi-wavevector in a.u.,A,eV,Ry     =   1.423034  2.689145 27.552161  2.025027
  Thomas-Fermi vector in A             =   2.543675
 
 Write flags
   LWAVE        =      F    write WAVECAR
   LDOWNSAMPLE  =      F    k-point downsampling of WAVECAR
   LCHARG       =      T    write CHGCAR
   LVTOT        =      F    write LOCPOT, total local potential
   LVHAR        =      F    write LOCPOT, Hartree potential only
   LELF         =      F    write electronic localiz. function (ELF)
   LORBIT       =     11    0 simple, 1 ext, 2 COOP (PROOUT), +10 PAW based schemes


 Dipole corrections
   LMONO  =      F    monopole corrections only (constant potential shift)
   LDIPOL =      F    correct potential (dipole corrections)
   IDIPOL =      0    1-x, 2-y, 3-z, 4-all directions 
   EPSILON=  1.0000000 bulk dielectric constant

 LDA+U is selected, type is set to LDAUTYPE =  2
   angular momentum for each species LDAUL =     0    2    2    0
   U (eV)           for each species LDAUU =   0.0  3.9  6.2  0.0
   J (eV)           for each species LDAUJ =   0.0  0.0  0.0  0.0
 Exchange correlation treatment:
   GGA     =    --    GGA type
   LEXCH   =     8    internal setting for exchange type
   VOSKOWN=      0    Vosko Wilk Nusair interpolation
   LHFCALC =     F    Hartree Fock is set to
   LHFONE  =     F    Hartree Fock one center treatment
   AEXX    =    0.0000 exact exchange contribution

 Linear response parameters
   LEPSILON=     F    determine dielectric tensor
   LRPA    =     F    only Hartree local field effects (RPA)
   LNABLA  =     F    use nabla operator in PAW spheres
   LVEL    =     F    velocity operator in full k-point grid
   LINTERFAST=   F  fast interpolation
   KINTER  =     0    interpolate to denser k-point grid
   CSHIFT  =0.1000    complex shift for real part using Kramers Kronig
   OMEGAMAX=  -1.0    maximum frequency
   DEG_THRESHOLD= 0.2000000E-02 threshold for treating states as degnerate
   RTIME   =   -0.100 relaxation time in fs
  (WPLASMAI=    0.000 imaginary part of plasma frequency in eV, 0.658/RTIME)
   DFIELD  = 0.0000000 0.0000000 0.0000000 field for delta impulse in time
 
 Orbital magnetization related:
   ORBITALMAG=     F  switch on orbital magnetization
   LCHIMAG   =     F  perturbation theory with respect to B field
   DQ        =  0.001000  dq finite difference perturbation B field
   LLRAUG    =     F  two centre corrections for induced B field



--------------------------------------------------------------------------------------------------------


 Static calculation
 charge density and potential will be updated during run
 spin polarized calculation
 RMM-DIIS sequential band-by-band and
  variant of blocked Davidson during initial phase
 perform sub-space diagonalisation
    before iterative eigenvector-optimisation
 modified Broyden-mixing scheme, WC =      100.0
 initial mixing is a Kerker type mixing with AMIX =  0.4000 and BMIX =      1.0000
 Hartree-type preconditioning will be used
 using additional bands           32
 real space projection scheme for non local part
 use partial core corrections
 calculate Harris-corrections to forces 
   (improved forces if not selfconsistent)
 use gradient corrections 
 use of overlap-Matrix (Vanderbilt PP)
 Fermi weights with tetrahedron method with Bloechl corrections


--------------------------------------------------------------------------------------------------------


  energy-cutoff  :      520.00
  volume of cell :      347.15
      direct lattice vectors                 reciprocal lattice vectors
     3.867889880  3.867889880 -0.000000000     0.172280636  0.086258266 -0.043221709
    -3.880614957  7.748504828 -0.004216040    -0.085975395  0.085975395 -0.043127560
    -0.001425052  3.869314933  7.716374387    -0.000046975  0.000046975  0.129570978

  length of vectors
     5.470022326  8.665940070  8.632151166     0.197456886  0.129009781  0.129570995


 
 k-points in units of 2pi/SCALE and weight: Automatic mesh                          
   0.00000000  0.00000000  0.00000000       0.028
   0.04307016  0.02156457 -0.01080543       0.056
   0.08614032  0.04312913 -0.02161085       0.028
  -0.02865847  0.02865847 -0.01437585       0.056
   0.01441169  0.05022303 -0.02518128       0.056
   0.05748185  0.07178760 -0.03598671       0.056
  -0.07172862  0.00709390 -0.00357043       0.056
  -0.00001566  0.00001566  0.04319033       0.056
   0.04305450  0.02158022  0.03238490       0.056
   0.08612466  0.04314479  0.02157947       0.056
  -0.04308582 -0.02154891  0.05399575       0.056
  -0.02867412  0.02867412  0.02881447       0.056
   0.01439604  0.05023869  0.01800905       0.056
   0.05746619  0.07180326  0.00720362       0.056
  -0.07174428  0.00710956  0.03961990       0.056
   0.02864281 -0.02864281  0.05756618       0.056
   0.07171297 -0.00707824  0.04676075       0.056
   0.11478312  0.01448633  0.03595532       0.056
  -0.01442735 -0.05020737  0.06837161       0.056
 
 k-points in reciprocal lattice and weights: Automatic mesh                          
   0.00000000  0.00000000  0.00000000       0.028
   0.25000000 -0.00000000  0.00000000       0.056
   0.50000000 -0.00000000  0.00000000       0.028
  -0.00000000  0.33333333  0.00000000       0.056
   0.25000000  0.33333333 -0.00000000       0.056
   0.50000000  0.33333333 -0.00000000       0.056
  -0.25000000  0.33333333 -0.00000000       0.056
  -0.00000000  0.00000000  0.33333333       0.056
   0.25000000 -0.00000000  0.33333333       0.056
   0.50000000  0.00000000  0.33333333       0.056
  -0.25000000  0.00000000  0.33333333       0.056
  -0.00000000  0.33333333  0.33333333       0.056
   0.25000000  0.33333333  0.33333333       0.056
   0.50000000  0.33333333  0.33333333       0.056
  -0.25000000  0.33333333  0.33333333       0.056
  -0.00000000 -0.33333333  0.33333333       0.056
   0.25000000 -0.33333333  0.33333333       0.056
   0.50000000 -0.33333333  0.33333333       0.056
  -0.25000000 -0.33333333  0.33333333       0.056
 
 position of ions in fractional coordinates (direct lattice) 
   0.83837690  0.82232717  0.50091893
   0.66666775  0.66666774  0.99999686
   0.49495926  0.51100662  0.49907486
   0.33186983  0.34135382  0.99490642
   0.16666969  0.16666375  0.49999698
   0.00146778  0.99196069  0.00510375
   0.75069376  0.24935594  0.24925654
   0.58264295  0.08397107  0.75074293
   0.08418102  0.58225926  0.24937859
   0.91765969  0.41471563  0.74996509
   0.24915318  0.75107443  0.75061922
   0.41567504  0.91861752  0.25003250
   0.66666688  0.16666055  0.50000579
   0.83167188  0.33125587  0.00540028
   0.00092811  0.50107929  0.49706448
   0.16666812  0.66665902  0.00000485
   0.33239314  0.83227408  0.50293955
   0.50165371  0.00209183  0.99460075
   0.41838687  0.92060790  0.75027572
   0.58537800  0.08635379  0.25006057
   0.74794866  0.24696569  0.74995215
   0.91494190  0.41272587  0.24972718
   0.08275427  0.58286395  0.75056523
   0.25057422  0.75048566  0.24941498
   0.25513349  0.24696569  0.74995215
   0.42260516  0.41272587  0.24972718
   0.58381646  0.58286395  0.75056523
   0.74952514  0.75048566  0.24941498
   0.91072961  0.92060790  0.75027572
   0.07820753  0.08635379  0.25006057
 
 position of ions in cartesian coordinates  (Angst):
   0.05090058 11.55276866  3.86181100
  -0.00990841 11.61357843  7.71353945
  -0.06928325  7.80506301  3.84889404
  -0.04244460  7.77822397  7.67563127
  -0.00281034  3.87070061  3.85746120
  -3.84374756  7.71163743  0.03520034
   1.93559119  5.80018856  1.92230547
   1.92666956  5.80910981  5.79265947
  -1.93427646  5.80216595  1.92184376
   1.93898623  9.66468379  5.78526292
  -1.95200329  9.68778304  5.78889233
  -1.95737193  9.69315207  1.92547146
   1.93113611  5.80464404  3.85752922
   1.93133106  5.80444831  0.04027397
  -1.94161430  5.80950418  3.83342308
  -1.94239303  5.81028330 -0.00277327
  -1.94479189  9.68057125  3.87736095
   1.93080639  5.80497337  7.67470290
  -1.95531963 11.65466213  5.78552706
   1.92871549  3.90085354  1.92919693
   1.93353558  7.70839898  5.78587034
   1.93690847  7.70317598  1.92524833
  -1.94285576  7.74058175  5.78918492
  -1.94350780  7.74940036  1.92141526
   0.02738077  5.80224418  5.78587034
   0.03260416  5.79887168  1.92524833
  -0.00480238  9.67863513  5.78918492
  -0.01362061  9.67928756  1.92141526
  -0.05099211 13.55898965  5.78552706
  -0.03296405  1.93917400  1.92919693
 


--------------------------------------------------------------------------------------------------------


 k-point  1 :   0.0000 0.0000 0.0000  plane waves:    9325
 k-point  2 :   0.2500-0.0000 0.0000  plane waves:    9341
 k-point  3 :   0.5000-0.0000 0.0000  plane waves:    9352
 k-point  4 :  -0.0000 0.3333 0.0000  plane waves:    9332
 k-point  5 :   0.2500 0.3333-0.0000  plane waves:    9332
 k-point  6 :   0.5000 0.3333-0.0000  plane waves:    9348
 k-point  7 :  -0.2500 0.3333-0.0000  plane waves:    9348
 k-point  8 :  -0.0000 0.0000 0.3333  plane waves:    9345
 k-point  9 :   0.2500-0.0000 0.3333  plane waves:    9335
 k-point 10 :   0.5000 0.0000 0.3333  plane waves:    9366
 k-point 11 :  -0.2500 0.0000 0.3333  plane waves:    9356
 k-point 12 :  -0.0000 0.3333 0.3333  plane waves:    9363
 k-point 13 :   0.2500 0.3333 0.3333  plane waves:    9343
 k-point 14 :   0.5000 0.3333 0.3333  plane waves:    9355
 k-point 15 :  -0.2500 0.3333 0.3333  plane waves:    9364
 k-point 16 :  -0.0000-0.3333 0.3333  plane waves:    9338
 k-point 17 :   0.2500-0.3333 0.3333  plane waves:    9352
 k-point 18 :   0.5000-0.3333 0.3333  plane waves:    9356
 k-point 19 :  -0.2500-0.3333 0.3333  plane waves:    9367

 maximum and minimum number of plane-waves per node :       958      917

 maximum number of plane-waves:      9367
 maximum index in each direction: 
   IXMAX=   10   IYMAX=   16   IZMAX=   16
   IXMIN=  -10   IYMIN=  -16   IZMIN=  -16


 real space projection operators:
  total allocation   :      21861.89 KBytes
  max/ min on nodes  :       2601.27       2071.19


 parallel 3D FFT for wavefunctions:
    minimum data exchange during FFTs selected (reduces bandwidth)
 parallel 3D FFT for charge:
    minimum data exchange during FFTs selected (reduces bandwidth)


 total amount of memory used by VASP MPI-rank0    95815. kBytes
=======================================================================

   base      :      30000. kBytes
   nonlr-proj:       7781. kBytes
   fftplans  :       3298. kBytes
   grid      :       9615. kBytes
   one-center:        294. kBytes
   wavefun   :      44827. kBytes
 
     INWAV:  cpu time    0.0000: real time    0.0001
 Broyden mixing: mesh for mixing (old mesh)
   NGX = 21   NGY = 33   NGZ = 33
  (NGX  = 84   NGY  =128   NGZ  =128)
  gives a total of  22869 points

 initial charge density was supplied:
 charge density of overlapping atoms calculated
 number of electron     228.0000000 magnetization      20.0000000
 keeping initial charge density in first step


--------------------------------------------------------------------------------------------------------


 Maximum index for non-local projection operator         1274
 Maximum index for augmentation-charges         1935 (set IRDMAX)


--------------------------------------------------------------------------------------------------------


 First call to EWALD:  gamma=   0.252
 Maximum number of real-space cells 4x 3x 3
 Maximum number of reciprocal cells 2x 3x 3

    FEWALD:  cpu time    0.0017: real time    0.0017


--------------------------------------- Iteration      1(   1)  ---------------------------------------


    POTLOK:  cpu time    0.0951: real time    0.0975
    SETDIJ:  cpu time    0.0159: real time    0.0162
atom =   1  type =  1  l = 0
 
 onsite density matrix
 
spin component  1
 
  1.0989
 
spin component  2
 
  1.0989
 
 occupancies and eigenvectors
 
  o =  1.0989  v =  1.0000  0.0000      0.0000  0.0000
  o =  1.0989  v =  0.0000  1.0000      0.0000  0.0000
atom =   2  type =  1  l = 0
 
 onsite density matrix
 
spin component  1
 
  1.0989
 
spin component  2
 
  1.0989
 
 occupancies and eigenvectors
 
  o =  1.0989  v =  1.0000  0.0000      0.0000  0.0000
  o =  1.0989  v =  0.0000  1.0000      0.0000  0.0000
atom =   3  type =  1  l = 0
 
 onsite density matrix
 
spin component  1
 
  1.0989
 
spin component  2
 
  1.0989
 
 occupancies and eigenvectors
 
  o =  1.0989  v =  1.0000  0.0000      0.0000  0.0000
  o =  1.0989  v =  0.0000  1.0000      0.0000  0.0000
atom =   4  type =  1  l = 0
 
 onsite density matrix
 
spin component  1
 
  1.0989
 
spin component  2
 
  1.0989
 
 occupancies and eigenvectors
 
  o =  1.0989  v =  1.0000  0.0000      0.0000  0.0000
  o =  1.0989  v =  0.0000  1.0000      0.0000  0.0000
atom =   5  type =  1  l = 0
 
 onsite density matrix
 
spin component  1
 
  1.0989
 
spin component  2
 
  1.0989
 
 occupancies and eigenvectors
 
  o =  1.0989  v =  1.0000  0.0000      0.0000  0.0000
  o =  1.0989  v =  0.0000  1.0000      0.0000  0.0000
atom =   6  type =  1  l = 0
 
 onsite density matrix
 
spin component  1
 
  1.0989
 
spin component  2
 
  1.0989
 
 occupancies and eigenvectors
 
  o =  1.0989  v =  1.0000  0.0000      0.0000  0.0000
  o =  1.0989  v =  0.0000  1.0000      0.0000  0.0000
atom =   7  type =  2  l = 2
 
 onsite density matrix
 
spin component  1
 
  0.8272  0.0000  0.0000  0.0000  0.0000
  0.0000  0.8272  0.0000  0.0000  0.0000
  0.0000  0.0000  0.8272  0.0000  0.0000
  0.0000  0.0000  0.0000  0.8272  0.0000
  0.0000  0.0000  0.0000  0.0000  0.8272
 
spin component  2
 
  0.2256  0.0000  0.0000  0.0000  0.0000
  0.0000  0.2256  0.0000  0.0000  0.0000
  0.0000  0.0000  0.2256  0.0000  0.0000
  0.0000  0.0000  0.0000  0.2256  0.0000
  0.0000  0.0000  0.0000  0.0000  0.2256
 
 occupancies and eigenvectors
 
  o =  0.2256  v =  0.0000  0.0000  0.0000  0.0000  0.0000  0.0000  0.0000  1.0000  0.0000  0.0000      0.0000  0.0000  0.0000  0.0000  0.0000  0.0000  0.0000  0.0000  0.0000  0.0000
  o =  0.2256  v =  0.0000  0.0000  0.0000  0.0000  0.0000  1.0000  0.0000  0.0000  0.0000  0.0000      0.0000  0.0000  0.0000  0.0000  0.0000  0.0000  0.0000  0.0000  0.0000  0.0000
  o =  0.2256  v =  0.0000  0.0000  0.0000  0.0000  0.0000  0.0000  1.0000  0.0000  0.0000  0.0000      0.0000  0.0000  0.0000  0.0000  0.0000  0.0000  0.0000  0.0000  0.0000  0.0000
  o =  0.2256  v =  0.0000  0.0000  0.0000  0.0000  0.0000  0.0000  0.0000  0.0000  1.0000  0.0000      0.0000  0.0000  0.0000  0.0000  0.0000  0.0000  0.0000  0.0000  0.0000  0.0000
  o =  0.2256  v =  0.0000  0.0000  0.0000  0.0000  0.0000  0.0000  0.0000  0.0000  0.0000  1.0000      0.0000  0.0000  0.0000  0.0000  0.0000  0.0000  0.0000  0.0000  0.0000  0.0000
  o =  0.8272  v =  0.0000  1.0000  0.0000  0.0000  0.0000  0.0000  0.0000  0.0000  0.0000  0.0000      0.0000  0.0000  0.0000  0.0000  0.0000  0.0000  0.0000  0.0000  0.0000  0.0000
  o =  0.8272  v =  0.0000  0.0000  1.0000  0.0000  0.0000  0.0000  0.0000  0.0000  0.0000  0.0000      0.0000  0.0000  0.0000  0.0000  0.0000  0.0000  0.0000  0.0000  0.0000  0.0000
  o =  0.8272  v =  1.0000  0.0000  0.0000  0.0000  0.0000  0.0000  0.0000  0.0000  0.0000  0.0000      0.0000  0.0000  0.0000  0.0000  0.0000  0.0000  0.0000  0.0000  0.0000  0.0000
  o =  0.8272  v =  0.0000  0.0000  0.0000  1.0000  0.0000  0.0000  0.0000  0.0000  0.0000  0.0000      0.0000  0.0000  0.0000  0.0000  0.0000  0.0000  0.0000  0.0000  0.0000  0.0000
  o =  0.8272  v =  0.0000  0.0000  0.0000  0.0000  1.0000  0.0000  0.0000  0.0000  0.0000  0.0000      0.0000  0.0000  0.0000  0.0000  0.0000  0.0000  0.0000  0.0000  0.0000  0.0000
atom =   8  type =  2  l = 2
 
 onsite density matrix
 
spin component  1
 
  0.8272  0.0000  0.0000  0.0000  0.0000
  0.0000  0.8272  0.0000  0.0000  0.0000
  0.0000  0.0000  0.8272  0.0000  0.0000
  0.0000  0.0000  0.0000  0.8272  0.0000
  0.0000  0.0000  0.0000  0.0000  0.8272
 
spin component  2
 
  0.2256  0.0000  0.0000  0.0000  0.0000
  0.0000  0.2256  0.0000  0.0000  0.0000
  0.0000  0.0000  0.2256  0.0000  0.0000
  0.0000  0.0000  0.0000  0.2256  0.0000
  0.0000  0.0000  0.0000  0.0000  0.2256
 
 occupancies and eigenvectors
 
  o =  0.2256  v =  0.0000  0.0000  0.0000  0.0000  0.0000  0.0000  0.0000  1.0000  0.0000  0.0000      0.0000  0.0000  0.0000  0.0000  0.0000  0.0000  0.0000  0.0000  0.0000  0.0000
  o =  0.2256  v =  0.0000  0.0000  0.0000  0.0000  0.0000  1.0000  0.0000  0.0000  0.0000  0.0000      0.0000  0.0000  0.0000  0.0000  0.0000  0.0000  0.0000  0.0000  0.0000  0.0000
  o =  0.2256  v =  0.0000  0.0000  0.0000  0.0000  0.0000  0.0000  1.0000  0.0000  0.0000  0.0000      0.0000  0.0000  0.0000  0.0000  0.0000  0.0000  0.0000  0.0000  0.0000  0.0000
  o =  0.2256  v =  0.0000  0.0000  0.0000  0.0000  0.0000  0.0000  0.0000  0.0000  1.0000  0.0000      0.0000  0.0000  0.0000  0.0000  0.0000  0.0000  0.0000  0.0000  0.0000  0.0000
  o =  0.2256  v =  0.0000  0.0000  0.0000  0.0000  0.0000  0.0000  0.0000  0.0000  0.0000  1.0000      0.0000  0.0000  0.0000  0.0000  0.0000  0.0000  0.0000  0.0000  0.0000  0.0000
  o =  0.8272  v =  0.0000  1.0000  0.0000  0.0000  0.0000  0.0000  0.0000  0.0000  0.0000  0.0000      0.0000  0.0000  0.0000  0.0000  0.0000  0.0000  0.0000  0.0000  0.0000  0.0000
  o =  0.8272  v =  0.0000  0.0000  1.0000  0.0000  0.0000  0.0000  0.0000  0.0000  0.0000  0.0000      0.0000  0.0000  0.0000  0.0000  0.0000  0.0000  0.0000  0.0000  0.0000  0.0000
  o =  0.8272  v =  1.0000  0.0000  0.0000  0.0000  0.0000  0.0000  0.0000  0.0000  0.0000  0.0000      0.0000  0.0000  0.0000  0.0000  0.0000  0.0000  0.0000  0.0000  0.0000  0.0000
  o =  0.8272  v =  0.0000  0.0000  0.0000  1.0000  0.0000  0.0000  0.0000  0.0000  0.0000  0.0000      0.0000  0.0000  0.0000  0.0000  0.0000  0.0000  0.0000  0.0000  0.0000  0.0000
  o =  0.8272  v =  0.0000  0.0000  0.0000  0.0000  1.0000  0.0000  0.0000  0.0000  0.0000  0.0000      0.0000  0.0000  0.0000  0.0000  0.0000  0.0000  0.0000  0.0000  0.0000  0.0000
atom =   9  type =  3  l = 2
 
 onsite density matrix
 
spin component  1
 
  1.1008  0.0000  0.0000  0.0000  0.0000
  0.0000  1.1008  0.0000  0.0000  0.0000
  0.0000  0.0000  1.1008  0.0000  0.0000
  0.0000  0.0000  0.0000  1.1008  0.0000
  0.0000  0.0000  0.0000  0.0000  1.1008
 
spin component  2
 
  0.5927  0.0000  0.0000  0.0000  0.0000
  0.0000  0.5927  0.0000  0.0000  0.0000
  0.0000  0.0000  0.5927  0.0000  0.0000
  0.0000  0.0000  0.0000  0.5927  0.0000
  0.0000  0.0000  0.0000  0.0000  0.5927
 
 occupancies and eigenvectors
 
  o =  0.5927  v =  0.0000  0.0000  0.0000  0.0000  0.0000  1.0000  0.0000  0.0000  0.0000  0.0000      0.0000  0.0000  0.0000  0.0000  0.0000  0.0000  0.0000  0.0000  0.0000  0.0000
  o =  0.5927  v =  0.0000  0.0000  0.0000  0.0000  0.0000  0.0000  1.0000  0.0000  0.0000  0.0000      0.0000  0.0000  0.0000  0.0000  0.0000  0.0000  0.0000  0.0000  0.0000  0.0000
  o =  0.5927  v =  0.0000  0.0000  0.0000  0.0000  0.0000  0.0000  0.0000  1.0000  0.0000  0.0000      0.0000  0.0000  0.0000  0.0000  0.0000  0.0000  0.0000  0.0000  0.0000  0.0000
  o =  0.5927  v =  0.0000  0.0000  0.0000  0.0000  0.0000  0.0000  0.0000  0.0000  1.0000  0.0000      0.0000  0.0000  0.0000  0.0000  0.0000  0.0000  0.0000  0.0000  0.0000  0.0000
  o =  0.5927  v =  0.0000  0.0000  0.0000  0.0000  0.0000  0.0000  0.0000  0.0000  0.0000  1.0000      0.0000  0.0000  0.0000  0.0000  0.0000  0.0000  0.0000  0.0000  0.0000  0.0000
  o =  1.1008  v =  1.0000  0.0000  0.0000  0.0000  0.0000  0.0000  0.0000  0.0000  0.0000  0.0000      0.0000  0.0000  0.0000  0.0000  0.0000  0.0000  0.0000  0.0000  0.0000  0.0000
  o =  1.1008  v =  0.0000  1.0000  0.0000  0.0000  0.0000  0.0000  0.0000  0.0000  0.0000  0.0000      0.0000  0.0000  0.0000  0.0000  0.0000  0.0000  0.0000  0.0000  0.0000  0.0000
  o =  1.1008  v =  0.0000  0.0000  1.0000  0.0000  0.0000  0.0000  0.0000  0.0000  0.0000  0.0000      0.0000  0.0000  0.0000  0.0000  0.0000  0.0000  0.0000  0.0000  0.0000  0.0000
  o =  1.1008  v =  0.0000  0.0000  0.0000  1.0000  0.0000  0.0000  0.0000  0.0000  0.0000  0.0000      0.0000  0.0000  0.0000  0.0000  0.0000  0.0000  0.0000  0.0000  0.0000  0.0000
  o =  1.1008  v =  0.0000  0.0000  0.0000  0.0000  1.0000  0.0000  0.0000  0.0000  0.0000  0.0000      0.0000  0.0000  0.0000  0.0000  0.0000  0.0000  0.0000  0.0000  0.0000  0.0000
atom =  10  type =  3  l = 2
 
 onsite density matrix
 
spin component  1
 
  1.1008  0.0000  0.0000  0.0000  0.0000
  0.0000  1.1008  0.0000  0.0000  0.0000
  0.0000  0.0000  1.1008  0.0000  0.0000
  0.0000  0.0000  0.0000  1.1008  0.0000
  0.0000  0.0000  0.0000  0.0000  1.1008
 
spin component  2
 
  0.5927  0.0000  0.0000  0.0000  0.0000
  0.0000  0.5927  0.0000  0.0000  0.0000
  0.0000  0.0000  0.5927  0.0000  0.0000
  0.0000  0.0000  0.0000  0.5927  0.0000
  0.0000  0.0000  0.0000  0.0000  0.5927
 
 occupancies and eigenvectors
 
  o =  0.5927  v =  0.0000  0.0000  0.0000  0.0000  0.0000  1.0000  0.0000  0.0000  0.0000  0.0000      0.0000  0.0000  0.0000  0.0000  0.0000  0.0000  0.0000  0.0000  0.0000  0.0000
  o =  0.5927  v =  0.0000  0.0000  0.0000  0.0000  0.0000  0.0000  1.0000  0.0000  0.0000  0.0000      0.0000  0.0000  0.0000  0.0000  0.0000  0.0000  0.0000  0.0000  0.0000  0.0000
  o =  0.5927  v =  0.0000  0.0000  0.0000  0.0000  0.0000  0.0000  0.0000  1.0000  0.0000  0.0000      0.0000  0.0000  0.0000  0.0000  0.0000  0.0000  0.0000  0.0000  0.0000  0.0000
  o =  0.5927  v =  0.0000  0.0000  0.0000  0.0000  0.0000  0.0000  0.0000  0.0000  1.0000  0.0000      0.0000  0.0000  0.0000  0.0000  0.0000  0.0000  0.0000  0.0000  0.0000  0.0000
  o =  0.5927  v =  0.0000  0.0000  0.0000  0.0000  0.0000  0.0000  0.0000  0.0000  0.0000  1.0000      0.0000  0.0000  0.0000  0.0000  0.0000  0.0000  0.0000  0.0000  0.0000  0.0000
  o =  1.1008  v =  1.0000  0.0000  0.0000  0.0000  0.0000  0.0000  0.0000  0.0000  0.0000  0.0000      0.0000  0.0000  0.0000  0.0000  0.0000  0.0000  0.0000  0.0000  0.0000  0.0000
  o =  1.1008  v =  0.0000  1.0000  0.0000  0.0000  0.0000  0.0000  0.0000  0.0000  0.0000  0.0000      0.0000  0.0000  0.0000  0.0000  0.0000  0.0000  0.0000  0.0000  0.0000  0.0000
  o =  1.1008  v =  0.0000  0.0000  1.0000  0.0000  0.0000  0.0000  0.0000  0.0000  0.0000  0.0000      0.0000  0.0000  0.0000  0.0000  0.0000  0.0000  0.0000  0.0000  0.0000  0.0000
  o =  1.1008  v =  0.0000  0.0000  0.0000  1.0000  0.0000  0.0000  0.0000  0.0000  0.0000  0.0000      0.0000  0.0000  0.0000  0.0000  0.0000  0.0000  0.0000  0.0000  0.0000  0.0000
  o =  1.1008  v =  0.0000  0.0000  0.0000  0.0000  1.0000  0.0000  0.0000  0.0000  0.0000  0.0000      0.0000  0.0000  0.0000  0.0000  0.0000  0.0000  0.0000  0.0000  0.0000  0.0000
atom =  11  type =  3  l = 2
 
 onsite density matrix
 
spin component  1
 
  1.1008  0.0000  0.0000  0.0000  0.0000
  0.0000  1.1008  0.0000  0.0000  0.0000
  0.0000  0.0000  1.1008  0.0000  0.0000
  0.0000  0.0000  0.0000  1.1008  0.0000
  0.0000  0.0000  0.0000  0.0000  1.1008
 
spin component  2
 
  0.5927  0.0000  0.0000  0.0000  0.0000
  0.0000  0.5927  0.0000  0.0000  0.0000
  0.0000  0.0000  0.5927  0.0000  0.0000
  0.0000  0.0000  0.0000  0.5927  0.0000
  0.0000  0.0000  0.0000  0.0000  0.5927
 
 occupancies and eigenvectors
 
  o =  0.5927  v =  0.0000  0.0000  0.0000  0.0000  0.0000  1.0000  0.0000  0.0000  0.0000  0.0000      0.0000  0.0000  0.0000  0.0000  0.0000  0.0000  0.0000  0.0000  0.0000  0.0000
  o =  0.5927  v =  0.0000  0.0000  0.0000  0.0000  0.0000  0.0000  1.0000  0.0000  0.0000  0.0000      0.0000  0.0000  0.0000  0.0000  0.0000  0.0000  0.0000  0.0000  0.0000  0.0000
  o =  0.5927  v =  0.0000  0.0000  0.0000  0.0000  0.0000  0.0000  0.0000  1.0000  0.0000  0.0000      0.0000  0.0000  0.0000  0.0000  0.0000  0.0000  0.0000  0.0000  0.0000  0.0000
  o =  0.5927  v =  0.0000  0.0000  0.0000  0.0000  0.0000  0.0000  0.0000  0.0000  1.0000  0.0000      0.0000  0.0000  0.0000  0.0000  0.0000  0.0000  0.0000  0.0000  0.0000  0.0000
  o =  0.5927  v =  0.0000  0.0000  0.0000  0.0000  0.0000  0.0000  0.0000  0.0000  0.0000  1.0000      0.0000  0.0000  0.0000  0.0000  0.0000  0.0000  0.0000  0.0000  0.0000  0.0000
  o =  1.1008  v =  1.0000  0.0000  0.0000  0.0000  0.0000  0.0000  0.0000  0.0000  0.0000  0.0000      0.0000  0.0000  0.0000  0.0000  0.0000  0.0000  0.0000  0.0000  0.0000  0.0000
  o =  1.1008  v =  0.0000  1.0000  0.0000  0.0000  0.0000  0.0000  0.0000  0.0000  0.0000  0.0000      0.0000  0.0000  0.0000  0.0000  0.0000  0.0000  0.0000  0.0000  0.0000  0.0000
  o =  1.1008  v =  0.0000  0.0000  1.0000  0.0000  0.0000  0.0000  0.0000  0.0000  0.0000  0.0000      0.0000  0.0000  0.0000  0.0000  0.0000  0.0000  0.0000  0.0000  0.0000  0.0000
  o =  1.1008  v =  0.0000  0.0000  0.0000  1.0000  0.0000  0.0000  0.0000  0.0000  0.0000  0.0000      0.0000  0.0000  0.0000  0.0000  0.0000  0.0000  0.0000  0.0000  0.0000  0.0000
  o =  1.1008  v =  0.0000  0.0000  0.0000  0.0000  1.0000  0.0000  0.0000  0.0000  0.0000  0.0000      0.0000  0.0000  0.0000  0.0000  0.0000  0.0000  0.0000  0.0000  0.0000  0.0000
atom =  12  type =  3  l = 2
 
 onsite density matrix
 
spin component  1
 
  1.1008  0.0000  0.0000  0.0000  0.0000
  0.0000  1.1008  0.0000  0.0000  0.0000
  0.0000  0.0000  1.1008  0.0000  0.0000
  0.0000  0.0000  0.0000  1.1008  0.0000
  0.0000  0.0000  0.0000  0.0000  1.1008
 
spin component  2
 
  0.5927  0.0000  0.0000  0.0000  0.0000
  0.0000  0.5927  0.0000  0.0000  0.0000
  0.0000  0.0000  0.5927  0.0000  0.0000
  0.0000  0.0000  0.0000  0.5927  0.0000
  0.0000  0.0000  0.0000  0.0000  0.5927
 
 occupancies and eigenvectors
 
  o =  0.5927  v =  0.0000  0.0000  0.0000  0.0000  0.0000  1.0000  0.0000  0.0000  0.0000  0.0000      0.0000  0.0000  0.0000  0.0000  0.0000  0.0000  0.0000  0.0000  0.0000  0.0000
  o =  0.5927  v =  0.0000  0.0000  0.0000  0.0000  0.0000  0.0000  1.0000  0.0000  0.0000  0.0000      0.0000  0.0000  0.0000  0.0000  0.0000  0.0000  0.0000  0.0000  0.0000  0.0000
  o =  0.5927  v =  0.0000  0.0000  0.0000  0.0000  0.0000  0.0000  0.0000  1.0000  0.0000  0.0000      0.0000  0.0000  0.0000  0.0000  0.0000  0.0000  0.0000  0.0000  0.0000  0.0000
  o =  0.5927  v =  0.0000  0.0000  0.0000  0.0000  0.0000  0.0000  0.0000  0.0000  1.0000  0.0000      0.0000  0.0000  0.0000  0.0000  0.0000  0.0000  0.0000  0.0000  0.0000  0.0000
  o =  0.5927  v =  0.0000  0.0000  0.0000  0.0000  0.0000  0.0000  0.0000  0.0000  0.0000  1.0000      0.0000  0.0000  0.0000  0.0000  0.0000  0.0000  0.0000  0.0000  0.0000  0.0000
  o =  1.1008  v =  1.0000  0.0000  0.0000  0.0000  0.0000  0.0000  0.0000  0.0000  0.0000  0.0000      0.0000  0.0000  0.0000  0.0000  0.0000  0.0000  0.0000  0.0000  0.0000  0.0000
  o =  1.1008  v =  0.0000  1.0000  0.0000  0.0000  0.0000  0.0000  0.0000  0.0000  0.0000  0.0000      0.0000  0.0000  0.0000  0.0000  0.0000  0.0000  0.0000  0.0000  0.0000  0.0000
  o =  1.1008  v =  0.0000  0.0000  1.0000  0.0000  0.0000  0.0000  0.0000  0.0000  0.0000  0.0000      0.0000  0.0000  0.0000  0.0000  0.0000  0.0000  0.0000  0.0000  0.0000  0.0000
  o =  1.1008  v =  0.0000  0.0000  0.0000  1.0000  0.0000  0.0000  0.0000  0.0000  0.0000  0.0000      0.0000  0.0000  0.0000  0.0000  0.0000  0.0000  0.0000  0.0000  0.0000  0.0000
  o =  1.1008  v =  0.0000  0.0000  0.0000  0.0000  1.0000  0.0000  0.0000  0.0000  0.0000  0.0000      0.0000  0.0000  0.0000  0.0000  0.0000  0.0000  0.0000  0.0000  0.0000  0.0000
atom =  13  type =  4  l = 0
 
 onsite density matrix
 
spin component  1
 
  0.8190
 
spin component  2
 
  0.8190
 
 occupancies and eigenvectors
 
  o =  0.8190  v =  1.0000  0.0000      0.0000  0.0000
  o =  0.8190  v =  0.0000  1.0000      0.0000  0.0000
atom =  14  type =  4  l = 0
 
 onsite density matrix
 
spin component  1
 
  0.8190
 
spin component  2
 
  0.8190
 
 occupancies and eigenvectors
 
  o =  0.8190  v =  1.0000  0.0000      0.0000  0.0000
  o =  0.8190  v =  0.0000  1.0000      0.0000  0.0000
atom =  15  type =  4  l = 0
 
 onsite density matrix
 
spin component  1
 
  0.8190
 
spin component  2
 
  0.8190
 
 occupancies and eigenvectors
 
  o =  0.8190  v =  1.0000  0.0000      0.0000  0.0000
  o =  0.8190  v =  0.0000  1.0000      0.0000  0.0000
atom =  16  type =  4  l = 0
 
 onsite density matrix
 
spin component  1
 
  0.8190
 
spin component  2
 
  0.8190
 
 occupancies and eigenvectors
 
  o =  0.8190  v =  1.0000  0.0000      0.0000  0.0000
  o =  0.8190  v =  0.0000  1.0000      0.0000  0.0000
atom =  17  type =  4  l = 0
 
 onsite density matrix
 
spin component  1
 
  0.8190
 
spin component  2
 
  0.8190
 
 occupancies and eigenvectors
 
  o =  0.8190  v =  1.0000  0.0000      0.0000  0.0000
  o =  0.8190  v =  0.0000  1.0000      0.0000  0.0000
atom =  18  type =  4  l = 0
 
 onsite density matrix
 
spin component  1
 
  0.8190
 
spin component  2
 
  0.8190
 
 occupancies and eigenvectors
 
  o =  0.8190  v =  1.0000  0.0000      0.0000  0.0000
  o =  0.8190  v =  0.0000  1.0000      0.0000  0.0000
atom =  19  type =  4  l = 0
 
 onsite density matrix
 
spin component  1
 
  0.8190
 
spin component  2
 
  0.8190
 
 occupancies and eigenvectors
 
  o =  0.8190  v =  1.0000  0.0000      0.0000  0.0000
  o =  0.8190  v =  0.0000  1.0000      0.0000  0.0000
atom =  20  type =  4  l = 0
 
 onsite density matrix
 
spin component  1
 
  0.8190
 
spin component  2
 
  0.8190
 
 occupancies and eigenvectors
 
  o =  0.8190  v =  1.0000  0.0000      0.0000  0.0000
  o =  0.8190  v =  0.0000  1.0000      0.0000  0.0000
atom =  21  type =  4  l = 0
 
 onsite density matrix
 
spin component  1
 
  0.8190
 
spin component  2
 
  0.8190
 
 occupancies and eigenvectors
 
  o =  0.8190  v =  1.0000  0.0000      0.0000  0.0000
  o =  0.8190  v =  0.0000  1.0000      0.0000  0.0000
atom =  22  type =  4  l = 0
 
 onsite density matrix
 
spin component  1
 
  0.8190
 
spin component  2
 
  0.8190
 
 occupancies and eigenvectors
 
  o =  0.8190  v =  1.0000  0.0000      0.0000  0.0000
  o =  0.8190  v =  0.0000  1.0000      0.0000  0.0000
atom =  23  type =  4  l = 0
 
 onsite density matrix
 
spin component  1
 
  0.8190
 
spin component  2
 
  0.8190
 
 occupancies and eigenvectors
 
  o =  0.8190  v =  1.0000  0.0000      0.0000  0.0000
  o =  0.8190  v =  0.0000  1.0000      0.0000  0.0000
atom =  24  type =  4  l = 0
 
 onsite density matrix
 
spin component  1
 
  0.8190
 
spin component  2
 
  0.8190
 
 occupancies and eigenvectors
 
  o =  0.8190  v =  1.0000  0.0000      0.0000  0.0000
  o =  0.8190  v =  0.0000  1.0000      0.0000  0.0000
atom =  25  type =  4  l = 0
 
 onsite density matrix
 
spin component  1
 
  0.8190
 
spin component  2
 
  0.8190
 
 occupancies and eigenvectors
 
  o =  0.8190  v =  1.0000  0.0000      0.0000  0.0000
  o =  0.8190  v =  0.0000  1.0000      0.0000  0.0000
atom =  26  type =  4  l = 0
 
 onsite density matrix
 
spin component  1
 
  0.8190
 
spin component  2
 
  0.8190
 
 occupancies and eigenvectors
 
  o =  0.8190  v =  1.0000  0.0000      0.0000  0.0000
  o =  0.8190  v =  0.0000  1.0000      0.0000  0.0000
atom =  27  type =  4  l = 0
 
 onsite density matrix
 
spin component  1
 
  0.8190
 
spin component  2
 
  0.8190
 
 occupancies and eigenvectors
 
  o =  0.8190  v =  1.0000  0.0000      0.0000  0.0000
  o =  0.8190  v =  0.0000  1.0000      0.0000  0.0000
atom =  28  type =  4  l = 0
 
 onsite density matrix
 
spin component  1
 
  0.8190
 
spin component  2
 
  0.8190
 
 occupancies and eigenvectors
 
  o =  0.8190  v =  1.0000  0.0000      0.0000  0.0000
  o =  0.8190  v =  0.0000  1.0000      0.0000  0.0000
atom =  29  type =  4  l = 0
 
 onsite density matrix
 
spin component  1
 
  0.8190
 
spin component  2
 
  0.8190
 
 occupancies and eigenvectors
 
  o =  0.8190  v =  1.0000  0.0000      0.0000  0.0000
  o =  0.8190  v =  0.0000  1.0000      0.0000  0.0000
atom =  30  type =  4  l = 0
 
 onsite density matrix
 
spin component  1
 
  0.8190
 
spin component  2
 
  0.8190
 
 occupancies and eigenvectors
 
  o =  0.8190  v =  1.0000  0.0000      0.0000  0.0000
  o =  0.8190  v =  0.0000  1.0000      0.0000  0.0000
     EDDAV:  cpu time    7.9221: real time    7.9528
 BZINTS: Fermi energy: 32.755383;228.000000 electrons
         Band energy:3464.448893;  BLOECHL correction: -0.238373
       DOS:  cpu time    0.0538: real time    0.0543
    --------------------------------------------
      LOOP:  cpu time    8.0869: real time    8.1208

 eigenvalue-minimisations  : 11876
 total energy-change (2. order) : 0.3602372E+04  (-0.8014393E+04)
 number of electron     228.0000000 magnetization      20.0000000
 augmentation part      228.0000000 magnetization      20.0000000

 Free energy of the ion-electron system (eV)
  ---------------------------------------------------
  alpha Z        PSCENC =       989.72977713
  Ewald energy   TEWEN  =    -15958.28653877
  -Hartree energ DENC   =     -3659.17249735
  -exchange      EXHF   =         0.00000000
  -V(xc)+E(xc)   XCENC  =       797.57548953
  PAW double counting   =     14758.73374630   -14913.13971078
  entropy T*S    EENTRO =         0.00000000
  eigenvalues    EBANDS =      3464.44889272
  atomic energy  EATOM  =     18122.48301372
  Solvation  Ediel_sol  =         0.00000000
  ---------------------------------------------------
  free energy    TOTEN  =      3602.37217250 eV

  energy without entropy =     3602.37217250  energy(sigma->0) =     3602.37217250


--------------------------------------------------------------------------------------------------------




--------------------------------------- Iteration      1(   2)  ---------------------------------------


     EDDAV:  cpu time    7.7087: real time    7.7397
 BZINTS: Fermi energy: 16.710478;228.000000 electrons
         Band energy:1113.829888;  BLOECHL correction: -0.034010
       DOS:  cpu time    0.0559: real time    0.0561
    --------------------------------------------
      LOOP:  cpu time    7.7647: real time    7.7957

 eigenvalue-minimisations  : 12264
 total energy-change (2. order) :-0.2350619E+04  (-0.2124859E+04)
 number of electron     228.0000000 magnetization      20.0000000
 augmentation part      228.0000000 magnetization      20.0000000

 Free energy of the ion-electron system (eV)
  ---------------------------------------------------
  alpha Z        PSCENC =       989.72977713
  Ewald energy   TEWEN  =    -15958.28653877
  -Hartree energ DENC   =     -3659.17249735
  -exchange      EXHF   =         0.00000000
  -V(xc)+E(xc)   XCENC  =       797.57548953
  PAW double counting   =     14758.73374630   -14913.13971078
  entropy T*S    EENTRO =         0.00000000
  eigenvalues    EBANDS =      1113.82988848
  atomic energy  EATOM  =     18122.48301372
  Solvation  Ediel_sol  =         0.00000000
  ---------------------------------------------------
  free energy    TOTEN  =      1251.75316826 eV

  energy without entropy =     1251.75316826  energy(sigma->0) =     1251.75316826


--------------------------------------------------------------------------------------------------------




--------------------------------------- Iteration      1(   3)  ---------------------------------------


     EDDAV:  cpu time    7.6559: real time    7.6840
 BZINTS: Fermi energy: 12.435327;228.000000 electrons
         Band energy: 135.126376;  BLOECHL correction: -0.024547
       DOS:  cpu time    0.0565: real time    0.0567
    --------------------------------------------
      LOOP:  cpu time    7.7124: real time    7.7408

 eigenvalue-minimisations  : 12240
 total energy-change (2. order) :-0.9787035E+03  (-0.8762126E+03)
 number of electron     228.0000000 magnetization      20.0000000
 augmentation part      228.0000000 magnetization      20.0000000

 Free energy of the ion-electron system (eV)
  ---------------------------------------------------
  alpha Z        PSCENC =       989.72977713
  Ewald energy   TEWEN  =    -15958.28653877
  -Hartree energ DENC   =     -3659.17249735
  -exchange      EXHF   =         0.00000000
  -V(xc)+E(xc)   XCENC  =       797.57548953
  PAW double counting   =     14758.73374630   -14913.13971078
  entropy T*S    EENTRO =         0.00000000
  eigenvalues    EBANDS =       135.12637599
  atomic energy  EATOM  =     18122.48301372
  Solvation  Ediel_sol  =         0.00000000
  ---------------------------------------------------
  free energy    TOTEN  =       273.04965577 eV

  energy without entropy =      273.04965577  energy(sigma->0) =      273.04965577


--------------------------------------------------------------------------------------------------------




--------------------------------------- Iteration      1(   4)  ---------------------------------------


     EDDAV:  cpu time   10.4089: real time   10.4504
 BZINTS: Fermi energy: 11.769735;228.000000 electrons
         Band energy:-290.332998;  BLOECHL correction: -0.010968
       DOS:  cpu time    0.0581: real time    0.0582
    --------------------------------------------
      LOOP:  cpu time   10.4669: real time   10.5086

 eigenvalue-minimisations  : 17742
 total energy-change (2. order) :-0.4254594E+03  (-0.4036426E+03)
 number of electron     228.0000000 magnetization      20.0000000
 augmentation part      228.0000000 magnetization      20.0000000

 Free energy of the ion-electron system (eV)
  ---------------------------------------------------
  alpha Z        PSCENC =       989.72977713
  Ewald energy   TEWEN  =    -15958.28653877
  -Hartree energ DENC   =     -3659.17249735
  -exchange      EXHF   =         0.00000000
  -V(xc)+E(xc)   XCENC  =       797.57548953
  PAW double counting   =     14758.73374630   -14913.13971078
  entropy T*S    EENTRO =         0.00000000
  eigenvalues    EBANDS =      -290.33299838
  atomic energy  EATOM  =     18122.48301372
  Solvation  Ediel_sol  =         0.00000000
  ---------------------------------------------------
  free energy    TOTEN  =      -152.40971859 eV

  energy without entropy =     -152.40971859  energy(sigma->0) =     -152.40971859


--------------------------------------------------------------------------------------------------------




--------------------------------------- Iteration      1(   5)  ---------------------------------------


     EDDAV:  cpu time   11.8630: real time   11.9093
 BZINTS: Fermi energy: 11.278180;228.000000 electrons
         Band energy:-381.272489;  BLOECHL correction: -0.007582
       DOS:  cpu time    0.0526: real time    0.0530
    CHARGE:  cpu time    0.3054: real time    0.3066
    MIXING:  cpu time    0.0036: real time    0.0037
    --------------------------------------------
      LOOP:  cpu time   12.2246: real time   12.2727

 eigenvalue-minimisations  : 20636
 total energy-change (2. order) :-0.9093949E+02  (-0.8796419E+02)
 number of electron     228.0000014 magnetization      17.5047144
 augmentation part       31.1415558 magnetization      13.2108685

 Broyden mixing:
  rms(total) = 0.81795E+01    rms(broyden)= 0.81791E+01
  rms(prec ) = 0.98624E+01
  weight for this iteration     100.00

 Free energy of the ion-electron system (eV)
  ---------------------------------------------------
  alpha Z        PSCENC =       989.72977713
  Ewald energy   TEWEN  =    -15958.28653877
  -Hartree energ DENC   =     -3659.17249735
  -exchange      EXHF   =         0.00000000
  -V(xc)+E(xc)   XCENC  =       797.57548953
  PAW double counting   =     14758.73374630   -14913.13971078
  entropy T*S    EENTRO =         0.00000000
  eigenvalues    EBANDS =      -381.27248937
  atomic energy  EATOM  =     18122.48301372
  Solvation  Ediel_sol  =         0.00000000
  ---------------------------------------------------
  free energy    TOTEN  =      -243.34920959 eV

  energy without entropy =     -243.34920959  energy(sigma->0) =     -243.34920959


--------------------------------------------------------------------------------------------------------




--------------------------------------- Iteration      1(   6)  ---------------------------------------


    POTLOK:  cpu time    0.0892: real time    0.0911
    SETDIJ:  cpu time    0.0145: real time    0.0145
atom =   1  type =  1  l = 0
 
 onsite density matrix
 
spin component  1
 
  1.0565
 
spin component  2
 
  1.0562
 
 occupancies and eigenvectors
 
  o =  1.0562  v =  0.0000  1.0000      0.0000  0.0000
  o =  1.0565  v =  1.0000  0.0000      0.0000  0.0000
atom =   2  type =  1  l = 0
 
 onsite density matrix
 
spin component  1
 
  1.0563
 
spin component  2
 
  1.0562
 
 occupancies and eigenvectors
 
  o =  1.0562  v =  0.0000  1.0000      0.0000  0.0000
  o =  1.0563  v =  1.0000  0.0000      0.0000  0.0000
atom =   3  type =  1  l = 0
 
 onsite density matrix
 
spin component  1
 
  1.0563
 
spin component  2
 
  1.0564
 
 occupancies and eigenvectors
 
  o =  1.0563  v =  1.0000  0.0000      0.0000  0.0000
  o =  1.0564  v =  0.0000  1.0000      0.0000  0.0000
atom =   4  type =  1  l = 0
 
 onsite density matrix
 
spin component  1
 
  1.0564
 
spin component  2
 
  1.0563
 
 occupancies and eigenvectors
 
  o =  1.0563  v =  0.0000  1.0000      0.0000  0.0000
  o =  1.0564  v =  1.0000  0.0000      0.0000  0.0000
atom =   5  type =  1  l = 0
 
 onsite density matrix
 
spin component  1
 
  1.0563
 
spin component  2
 
  1.0563
 
 occupancies and eigenvectors
 
  o =  1.0563  v =  1.0000  0.0000      0.0000  0.0000
  o =  1.0563  v =  0.0000  1.0000      0.0000  0.0000
atom =   6  type =  1  l = 0
 
 onsite density matrix
 
spin component  1
 
  1.0575
 
spin component  2
 
  1.0582
 
 occupancies and eigenvectors
 
  o =  1.0575  v =  1.0000  0.0000      0.0000  0.0000
  o =  1.0582  v =  0.0000  1.0000      0.0000  0.0000
atom =   7  type =  2  l = 2
 
 onsite density matrix
 
spin component  1
 
  0.9330  0.0048  0.0032 -0.0048 -0.0000
  0.0048  0.9480  0.0012 -0.0046  0.0020
  0.0032  0.0012  0.3337 -0.0012 -0.0000
 -0.0048 -0.0046 -0.0012  0.9480  0.0020
 -0.0000  0.0020 -0.0000  0.0020  0.3435
 
spin component  2
 
  0.0508 -0.0030 -0.0018  0.0030  0.0000
 -0.0030  0.0398 -0.0006  0.0031 -0.0012
 -0.0018 -0.0006  0.4650  0.0006  0.0000
  0.0030  0.0031  0.0006  0.0398 -0.0012
  0.0000 -0.0012  0.0000 -0.0012  0.4592
 
 occupancies and eigenvectors
 
  o =  0.0355  v =  0.0000  0.0000  0.0000  0.0000  0.0000 -0.2673 -0.6814 -0.0031  0.6814  0.0000      0.0000  0.0000  0.0000  0.0000  0.0000  0.0000  0.0000  0.0000  0.0000  0.0000
  o =  0.0429  v =  0.0000  0.0000  0.0000  0.0000  0.0000  0.0000  0.7071  0.0000  0.7071  0.0040      0.0000  0.0000  0.0000  0.0000  0.0000  0.0000  0.0000  0.0000  0.0000  0.0000
  o =  0.0520  v =  0.0000  0.0000  0.0000  0.0000  0.0000  0.9636 -0.1890  0.0036  0.1890 -0.0000      0.0000  0.0000  0.0000  0.0000  0.0000  0.0000  0.0000  0.0000  0.0000  0.0000
  o =  0.3337  v =  0.0054  0.0020 -1.0000 -0.0020 -0.0000  0.0000  0.0000  0.0000  0.0000  0.0000      0.0000  0.0000  0.0000  0.0000  0.0000  0.0000  0.0000  0.0000  0.0000  0.0000
  o =  0.3435  v =  0.0000 -0.0033 -0.0000 -0.0033  1.0000  0.0000  0.0000  0.0000  0.0000  0.0000      0.0000  0.0000  0.0000  0.0000  0.0000  0.0000  0.0000  0.0000  0.0000  0.0000
  o =  0.4592  v =  0.0000  0.0000  0.0000  0.0000  0.0000  0.0000 -0.0029 -0.0000 -0.0029  1.0000      0.0000  0.0000  0.0000  0.0000  0.0000  0.0000  0.0000  0.0000  0.0000  0.0000
  o =  0.4650  v =  0.0000  0.0000  0.0000  0.0000  0.0000  0.0044  0.0015 -1.0000 -0.0015 -0.0000      0.0000  0.0000  0.0000  0.0000  0.0000  0.0000  0.0000  0.0000  0.0000  0.0000
[...]
  0.000   0.000   0.000  -0.000  -0.000  -0.000  -0.000   0.000   0.000  -0.002   0.000   0.002   0.000  -0.000   0.001  -0.000
 -0.000  -0.001   0.000  -0.000  -0.000  -0.000  -0.000   0.000   0.002   0.000   0.002  -0.000   0.000  -0.001  -0.000  -0.001
 -0.000  -0.000   0.000  -0.000   0.000  -0.000   0.000  -0.000   0.000   0.001   0.000   0.001  -0.000  -0.000  -0.000  -0.000
  0.000   0.002  -0.000   0.000   0.000   0.000  -0.000  -0.000  -0.001   0.000   0.001  -0.000   0.002   0.000  -0.000  -0.000
 -0.000  -0.002   0.000  -0.000  -0.000  -0.000   0.000   0.000   0.002  -0.000  -0.002   0.000   0.003  -0.001   0.000   0.001
 -0.000  -0.000   0.000  -0.001  -0.000  -0.000   0.001   0.000  -0.000   0.005  -0.000  -0.005  -0.000   0.000  -0.002   0.000
 -0.000  -0.001   0.000   0.000  -0.000  -0.000  -0.000   0.000   0.003   0.000   0.003  -0.000  -0.000  -0.001  -0.000  -0.001
 -0.000  -0.000  -0.000  -0.000   0.000   0.000   0.000  -0.000  -0.000   0.003  -0.000  -0.003  -0.000   0.000  -0.001   0.000
  0.000   0.001  -0.000  -0.000   0.000   0.000   0.000  -0.000  -0.003  -0.000  -0.003   0.000  -0.000   0.001   0.000   0.001
  0.000   0.000  -0.000   0.000  -0.000   0.000  -0.000   0.000  -0.000  -0.002  -0.000  -0.002  -0.000   0.000   0.001   0.000
 -0.000  -0.002   0.000  -0.000  -0.000  -0.000   0.000   0.000   0.002  -0.000  -0.002   0.000  -0.003  -0.001   0.000   0.001


------------------------ aborting loop because EDIFF is reached ----------------------------------------


 


 total charge     
 
# of ion       s       p       d       f       tot
--------------------------------------------------
    1        2.000   5.699   0.497   0.192   8.388
    2        2.000   5.700   0.493   0.191   8.384
    3        2.000   5.699   0.497   0.192   8.388
    4        2.000   5.700   0.495   0.193   8.388
    5        1.999   5.701   0.490   0.192   8.383
    6        2.000   5.700   0.495   0.193   8.389
    7        0.358   0.572   4.862   0.000   5.791
    8        0.358   0.572   4.862   0.000   5.791
    9        0.418   0.620   8.319   0.000   9.356
   10        0.407   0.593   8.318   0.000   9.318
   11        0.418   0.620   8.318   0.000   9.356
   12        0.407   0.593   8.318   0.000   9.319
   13        1.562   3.470   0.000   0.000   5.032
   14        1.563   3.455   0.000   0.000   5.018
   15        1.562   3.437   0.000   0.000   4.998
   16        1.560   3.443   0.000   0.000   5.003
   17        1.562   3.437   0.000   0.000   4.998
   18        1.563   3.455   0.000   0.000   5.018
   19        1.562   3.456   0.000   0.000   5.018
   20        1.562   3.457   0.000   0.000   5.018
   21        1.562   3.457   0.000   0.000   5.018
   22        1.562   3.456   0.000   0.000   5.018
   23        1.561   3.436   0.000   0.000   4.997
   24        1.561   3.436   0.000   0.000   4.997
   25        1.562   3.456   0.000   0.000   5.018
   26        1.562   3.457   0.000   0.000   5.019
   27        1.561   3.440   0.000   0.000   5.001
   28        1.561   3.440   0.000   0.000   5.001
   29        1.562   3.457   0.000   0.000   5.019
   30        1.562   3.456   0.000   0.000   5.018
--------------------------------------------------
tot         42.479  99.867  45.964   1.153 189.464

 


 magnetization (x)
 
# of ion       s       p       d       f       tot
--------------------------------------------------
    1        0.000   0.000   0.005   0.003   0.009
    2        0.001   0.000   0.006   0.003   0.010
    3        0.000   0.000   0.005   0.003   0.009
    4        0.001   0.001   0.008   0.004   0.013
    5        0.001   0.001   0.009   0.004   0.014
    6        0.001   0.001   0.008   0.004   0.013
    7        0.024   0.031   3.208   0.000   3.263
    8        0.024   0.031   3.208   0.000   3.263
    9        0.015   0.007   1.468   0.000   1.490
   10        0.013   0.001   1.555   0.000   1.568
   11        0.015   0.007   1.468   0.000   1.490
   12        0.013   0.001   1.554   0.000   1.568
   13        0.001  -0.015   0.000   0.000  -0.014
   14        0.004  -0.045   0.000   0.000  -0.041
   15        0.006  -0.084   0.000   0.000  -0.078
   16        0.005  -0.074   0.000   0.000  -0.069
   17        0.006  -0.084   0.000   0.000  -0.078
   18        0.004  -0.045   0.000   0.000  -0.041
   19        0.005  -0.027   0.000   0.000  -0.022
   20        0.004  -0.027   0.000   0.000  -0.023
   21        0.004  -0.027   0.000   0.000  -0.023
   22        0.005  -0.027   0.000   0.000  -0.022
   23        0.006  -0.073   0.000   0.000  -0.067
   24        0.006  -0.073   0.000   0.000  -0.067
   25        0.004  -0.028   0.000   0.000  -0.023
   26        0.005  -0.026   0.000   0.000  -0.021
   27        0.006  -0.069   0.000   0.000  -0.063
   28        0.006  -0.069   0.000   0.000  -0.063
   29        0.005  -0.026   0.000   0.000  -0.021
   30        0.004  -0.028   0.000   0.000  -0.023
--------------------------------------------------
tot          0.196  -0.767  12.503   0.019  11.952

 
    CHARGE:  cpu time    0.3019: real time    0.3026
    FORLOC:  cpu time    0.0120: real time    0.0120
    FORNL :  cpu time    2.0419: real time    2.0491
    STRESS:  cpu time    6.1526: real time    6.1745
    FORCOR:  cpu time    0.1014: real time    0.1019
    FORHAR:  cpu time    0.0215: real time    0.0216
    MIXING:  cpu time    0.0058: real time    0.0058
    OFIELD:  cpu time    0.0001: real time    0.0002

  FORCE on cell =-STRESS in cart. coord.  units (eV):
  Direction    XX          YY          ZZ          XY          YZ          ZX
  --------------------------------------------------------------------------------------
  Alpha Z   989.72978   989.72978   989.72978
  Ewald   -5340.19924 -5340.19922 -5277.94603    15.23310     8.99716    -8.99714
  Hartree  1219.34993  1219.34979  1260.75508    14.18344     8.36393    -8.36394
  E(xc)   -1066.83110 -1066.83109 -1066.70377    -0.01637    -0.00203     0.00205
  Local    -727.79409  -727.79273  -823.98141   -28.63539   -17.23212    17.23268
  n-local   429.19599   429.21266   430.12195     0.32010     0.07626    -0.11114
  augment   635.56809   635.56785   632.59730     0.00344     0.01419    -0.01480
  Kinetic  3861.20785  3860.68363  3855.15334    -0.99501    -0.13003     0.27582
  Fock        0.00000     0.00000     0.00000     0.00000     0.00000     0.00000
  -------------------------------------------------------------------------------------
  Total      -0.02606    -0.02606    -0.27377     0.09303     0.03186    -0.03186
  in kB      -0.12027    -0.12027    -1.26352     0.42938     0.14706    -0.14706
  external pressure =       -0.50 kB  Pullay stress =        0.00 kB


 VOLUME and BASIS-vectors are now :
 -----------------------------------------------------------------------------
  energy-cutoff  :      520.00
  volume of cell :      347.15
      direct lattice vectors                 reciprocal lattice vectors
     3.867889880  3.867889880 -0.000000000     0.172280636  0.086258266 -0.043221709
    -3.880614957  7.748504828 -0.004216040    -0.085975395  0.085975395 -0.043127560
    -0.001425052  3.869314933  7.716374387    -0.000046975  0.000046975  0.129570978

  length of vectors
     5.470022326  8.665940070  8.632151166     0.197456886  0.129009781  0.129570995


 FORCES acting on ions
    electron-ion (+dipol)            ewald-force                    non-local-force                 convergence-correction
 -----------------------------------------------------------------------------------------------
   0.591E+02 -.591E+02 0.370E+01   -.585E+02 0.585E+02 -.366E+01   -.591E+00 0.591E+00 -.143E-01   0.500E-02 -.500E-02 0.633E-02
   -.137E-01 0.133E-01 0.307E-02   0.131E-01 -.133E-01 0.547E-02   0.788E-03 -.788E-03 0.110E-03   0.561E-03 -.559E-03 -.766E-02
   -.591E+02 0.591E+02 -.373E+01   0.585E+02 -.585E+02 0.368E+01   0.590E+00 -.590E+00 0.158E-01   -.646E-02 0.646E-02 0.723E-02
   -.368E+02 0.368E+02 -.304E+02   0.364E+02 -.364E+02 0.301E+02   0.356E+00 -.356E+00 0.323E+00   -.155E-02 0.155E-02 -.923E-02
   0.394E-01 -.399E-01 -.182E-01   -.400E-01 0.399E-01 0.119E-01   -.310E-04 0.310E-04 -.564E-03   0.113E-02 -.113E-02 0.549E-02
   0.368E+02 -.368E+02 0.305E+02   -.365E+02 0.365E+02 -.301E+02   -.355E+00 0.355E+00 -.322E+00   0.107E-02 -.107E-02 -.241E-02
   -.414E+01 0.414E+01 -.225E+02   0.419E+01 -.419E+01 0.222E+02   -.386E-01 0.386E-01 0.346E+00   0.746E-03 -.746E-03 -.143E-02
   0.415E+01 -.415E+01 0.225E+02   -.420E+01 0.420E+01 -.222E+02   0.399E-01 -.399E-01 -.345E+00   -.145E-03 0.145E-03 0.490E-03
   -.287E+02 0.287E+02 -.216E+00   0.282E+02 -.282E+02 0.494E+00   0.547E+00 -.547E+00 -.271E+00   -.935E-03 0.935E-03 0.580E-02
   -.342E+02 0.342E+02 -.222E+02   0.337E+02 -.337E+02 0.216E+02   0.485E+00 -.485E+00 0.588E+00   -.474E-02 0.474E-02 -.319E-02
   0.287E+02 -.287E+02 0.151E+00   -.281E+02 0.281E+02 -.428E+00   -.549E+00 0.549E+00 0.272E+00   0.501E-02 -.501E-02 -.701E-02
   0.342E+02 -.342E+02 0.222E+02   -.337E+02 0.337E+02 -.216E+02   -.485E+00 0.485E+00 -.585E+00   0.104E-03 -.104E-03 0.595E-02
   0.134E-01 -.139E-01 0.128E-01   -.136E-01 0.136E-01 -.205E-01   0.638E-04 -.638E-04 0.269E-02   0.184E-03 -.184E-03 0.590E-02
   -.121E+02 0.121E+02 -.389E+02   0.122E+02 -.122E+02 0.332E+02   -.136E+00 0.136E+00 0.573E+01   -.241E-03 0.242E-03 -.197E-01
   -.211E+02 0.211E+02 -.134E+02   0.213E+02 -.213E+02 0.146E+02   -.277E+00 0.277E+00 -.121E+01   -.102E-02 0.102E-02 0.726E-02
   -.191E-01 0.186E-01 0.362E-01   0.193E-01 -.192E-01 -.295E-01   -.939E-04 0.939E-04 0.335E-02   0.115E-03 -.116E-03 -.898E-02
   0.210E+02 -.210E+02 0.134E+02   -.213E+02 0.213E+02 -.146E+02   0.280E+00 -.280E+00 0.121E+01   0.576E-03 -.576E-03 0.562E-02
   0.121E+02 -.121E+02 0.390E+02   -.122E+02 0.122E+02 -.332E+02   0.129E+00 -.129E+00 -.572E+01   0.254E-03 -.254E-03 0.963E-02
   0.834E+01 -.524E+02 0.125E+02   -.798E+01 0.480E+02 -.129E+02   -.368E+00 0.443E+01 0.372E+00   0.772E-03 -.135E-01 -.349E-03
   0.824E+01 -.471E+02 -.895E+00   -.820E+01 0.427E+02 0.920E+00   -.215E-01 0.438E+01 0.236E-02   0.857E-03 -.151E-01 -.167E-03
   -.823E+01 0.470E+02 0.906E+00   0.819E+01 -.427E+02 -.933E+00   0.191E-01 -.438E+01 0.541E-02   -.316E-03 0.126E-01 -.383E-04
   -.834E+01 0.524E+02 -.125E+02   0.797E+01 -.480E+02 0.129E+02   0.368E+00 -.443E+01 -.370E+00   -.356E-05 0.112E-01 0.350E-03
   0.336E+00 0.637E+01 -.890E+01   -.645E+00 -.635E+01 0.887E+01   0.310E+00 -.355E-03 0.899E-02   -.487E-03 0.110E-02 -.153E-02
   -.370E+00 -.635E+01 0.888E+01   0.679E+00 0.633E+01 -.886E+01   -.310E+00 0.302E-02 -.176E-01   -.749E-03 0.403E-02 0.182E-02
   -.470E+02 0.823E+01 0.906E+00   0.427E+02 -.819E+01 -.933E+00   0.438E+01 -.191E-01 0.541E-02   -.126E-01 0.316E-03 -.383E-04
   -.524E+02 0.834E+01 -.125E+02   0.480E+02 -.797E+01 0.129E+02   0.443E+01 -.368E+00 -.370E+00   -.112E-01 0.344E-05 0.350E-03
   -.637E+01 -.335E+00 -.890E+01   0.635E+01 0.645E+00 0.887E+01   0.355E-03 -.310E+00 0.899E-02   -.110E-02 0.487E-03 -.153E-02
   0.635E+01 0.370E+00 0.888E+01   -.633E+01 -.679E+00 -.886E+01   -.302E-02 0.310E+00 -.176E-01   -.403E-02 0.749E-03 0.182E-02
   0.524E+02 -.834E+01 0.125E+02   -.480E+02 0.798E+01 -.129E+02   -.443E+01 0.368E+00 0.372E+00   0.135E-01 -.773E-03 -.349E-03
   0.471E+02 -.823E+01 -.895E+00   -.427E+02 0.820E+01 0.920E+00   -.438E+01 0.215E-01 0.236E-02   0.151E-01 -.857E-03 -.167E-03
 -----------------------------------------------------------------------------------------------
   0.700E-03 -.697E-03 -.807E-02   -.497E-13 -.320E-13 0.355E-13   -.461E-02 0.461E-02 0.202E-01   -.613E-03 0.613E-03 0.230E-03
 
 
 POSITION                                       TOTAL-FORCE (eV/Angst)
 -----------------------------------------------------------------------------------
      0.05090     11.55277      3.86181         0.016027     -0.016027      0.027284
     -0.00991     11.61358      7.71354         0.001182     -0.001182      0.000582
     -0.06928      7.80506      3.84889        -0.016283      0.016283     -0.027773
     -0.04244      7.77822      7.67563        -0.005991      0.005991     -0.039196
     -0.00281      3.87070      3.85746         0.000938     -0.000938     -0.001784
     -3.84375      7.71164      0.03520         0.009068     -0.009068      0.040734
      1.93559      5.80019      1.92231         0.007707     -0.007707     -0.018141
      1.92667      5.80911      5.79266        -0.007474      0.007474      0.018523
     -1.93428      5.80217      1.92184        -0.011313      0.011313      0.011999
      1.93899      9.66468      5.78526        -0.011513      0.011513      0.002225
     -1.95200      9.68778      5.78889         0.012237     -0.012237     -0.012835
     -1.95737      9.69315      1.92547         0.012067     -0.012067     -0.002403
      1.93114      5.80464      3.85753         0.000471     -0.000471      0.000481
      1.93133      5.80445      0.04027        -0.011100      0.011100     -0.001971
     -1.94161      5.80950      3.83342        -0.042461      0.042461      0.021552
     -1.94239      5.81028     -0.00277         0.000582     -0.000582      0.000679
     -1.94479      9.68057      3.87736         0.041074     -0.041074     -0.021265
      1.93081      5.80497      7.67470         0.006542     -0.006542      0.003281
     -1.95532     11.65466      5.78553        -0.001527     -0.016020      0.018081
      1.92872      3.90085      1.92920         0.012342      0.002279      0.026850
      1.93354      7.70840      5.78587        -0.012599     -0.002662     -0.022409
      1.93691      7.70318      1.92525         0.001109      0.015317     -0.017376
     -1.94286      7.74058      5.78918         0.000520      0.012725     -0.019333
     -1.94351      7.74940      1.92142        -0.001870     -0.011902      0.013201
      0.02738      5.80224      5.78587         0.002662      0.012599     -0.022409
      0.03260      5.79887      1.92525        -0.015317     -0.001109     -0.017376
     -0.00480      9.67864      5.78918        -0.012725     -0.000520     -0.019333
     -0.01362      9.67929      1.92142         0.011902      0.001870      0.013201
     -0.05099     13.55899      5.78553         0.016020      0.001527      0.018081
     -0.03296      1.93917      1.92920        -0.002279     -0.012342      0.026850
 -----------------------------------------------------------------------------------
    total drift:                               -0.004528      0.004531      0.012317


--------------------------------------------------------------------------------------------------------



  FREE ENERGIE OF THE ION-ELECTRON SYSTEM (eV)
  ---------------------------------------------------
  free  energy   TOTEN  =      -213.92342802 eV

  energy  without entropy=     -213.92342802  energy(sigma->0) =     -213.92342802
 


--------------------------------------------------------------------------------------------------------


    POTLOK:  cpu time    0.1031: real time    0.1034


--------------------------------------------------------------------------------------------------------


     LOOP+:  cpu time  189.5207: real time  190.2798
    4ORBIT:  cpu time    0.0000: real time    0.0000
 


 total charge     
 
# of ion       s       p       d       f       tot
--------------------------------------------------
    1        2.000   5.699   0.497   0.192   8.388
    2        2.000   5.700   0.493   0.191   8.384
    3        2.000   5.699   0.497   0.192   8.388
    4        2.000   5.700   0.495   0.193   8.388
    5        1.999   5.701   0.490   0.192   8.383
    6        2.000   5.700   0.495   0.193   8.389
    7        0.358   0.572   4.862   0.000   5.791
    8        0.358   0.572   4.862   0.000   5.791
    9        0.418   0.620   8.319   0.000   9.356
   10        0.407   0.593   8.318   0.000   9.318
   11        0.418   0.620   8.318   0.000   9.356
   12        0.407   0.593   8.318   0.000   9.319
   13        1.562   3.470   0.000   0.000   5.032
   14        1.563   3.455   0.000   0.000   5.018
   15        1.562   3.437   0.000   0.000   4.998
   16        1.560   3.443   0.000   0.000   5.003
   17        1.562   3.437   0.000   0.000   4.998
   18        1.563   3.455   0.000   0.000   5.018
   19        1.562   3.456   0.000   0.000   5.018
   20        1.562   3.457   0.000   0.000   5.018
   21        1.562   3.457   0.000   0.000   5.018
   22        1.562   3.456   0.000   0.000   5.018
   23        1.561   3.436   0.000   0.000   4.997
   24        1.561   3.436   0.000   0.000   4.997
   25        1.562   3.456   0.000   0.000   5.018
   26        1.562   3.457   0.000   0.000   5.019
   27        1.561   3.440   0.000   0.000   5.001
   28        1.561   3.440   0.000   0.000   5.001
   29        1.562   3.457   0.000   0.000   5.019
   30        1.562   3.456   0.000   0.000   5.018
--------------------------------------------------
tot         42.479  99.867  45.964   1.153 189.464

 


 magnetization (x)
 
# of ion       s       p       d       f       tot
--------------------------------------------------
    1        0.000   0.000   0.005   0.003   0.009
    2        0.001   0.000   0.006   0.003   0.010
    3        0.000   0.000   0.005   0.003   0.009
    4        0.001   0.001   0.008   0.004   0.013
    5        0.001   0.001   0.009   0.004   0.014
    6        0.001   0.001   0.008   0.004   0.013
    7        0.024   0.031   3.208   0.000   3.263
    8        0.024   0.031   3.208   0.000   3.263
    9        0.015   0.007   1.468   0.000   1.490
   10        0.013   0.001   1.555   0.000   1.568
   11        0.015   0.007   1.468   0.000   1.490
   12        0.013   0.001   1.554   0.000   1.568
   13        0.001  -0.015   0.000   0.000  -0.014
   14        0.004  -0.045   0.000   0.000  -0.041
   15        0.006  -0.084   0.000   0.000  -0.078
   16        0.005  -0.074   0.000   0.000  -0.069
   17        0.006  -0.084   0.000   0.000  -0.078
   18        0.004  -0.045   0.000   0.000  -0.041
   19        0.005  -0.027   0.000   0.000  -0.022
   20        0.004  -0.027   0.000   0.000  -0.023
   21        0.004  -0.027   0.000   0.000  -0.023
   22        0.005  -0.027   0.000   0.000  -0.022
   23        0.006  -0.073   0.000   0.000  -0.067
   24        0.006  -0.073   0.000   0.000  -0.067
   25        0.004  -0.028   0.000   0.000  -0.023
   26        0.005  -0.026   0.000   0.000  -0.021
   27        0.006  -0.069   0.000   0.000  -0.063
   28        0.006  -0.069   0.000   0.000  -0.063
   29        0.005  -0.026   0.000   0.000  -0.021
   30        0.004  -0.028   0.000   0.000  -0.023
--------------------------------------------------
tot          0.196  -0.767  12.503   0.019  11.952

 
 BZINTS: Fermi energy:  7.602845;228.000000 electrons
         Band energy:-290.239498;  BLOECHL correction: -0.021152

 total amount of memory used by VASP MPI-rank0    95815. kBytes
=======================================================================

   base      :      30000. kBytes
   nonlr-proj:       7781. kBytes
   fftplans  :       3298. kBytes
   grid      :       9615. kBytes
   one-center:        294. kBytes
   wavefun   :      44827. kBytes
 
  
  
 General timing and accounting informations for this job:
 ========================================================
  
                  Total CPU time used (sec):      201.984
                            User time (sec):      198.146
                          System time (sec):        3.839
                         Elapsed time (sec):      203.072
  
                   Maximum memory used (kb):      161412.
                   Average memory used (kb):           0.
  
                          Minor page faults:        46036
                          Major page faults:            0
                 Voluntary context switches:         1010
