       N       E                     dE             d eps       ncg     rms          rms(c)
DAV:   1     0.356531089600E+04    0.35653E+04   -0.77592E+04  6256   0.244E+03
DAV:   2     0.123824619912E+04   -0.23271E+04   -0.20979E+04  6472   0.637E+02
DAV:   3     0.267873132858E+03   -0.97037E+03   -0.87598E+03  6640   0.333E+02
DAV:   4    -0.163423459233E+03   -0.43130E+03   -0.40691E+03  9272   0.183E+02
DAV:   5    -0.255355349701E+03   -0.91932E+02   -0.88508E+02 10496   0.975E+01    0.707E+01
RMM:   6    -0.229510043481E+03    0.25845E+02   -0.73618E+02  9476   0.107E+02    0.106E+02
RMM:   7    -0.229766127720E+03   -0.25608E+00   -0.15262E+02 10134   0.363E+01    0.461E+01
RMM:   8    -0.222828894524E+03    0.69372E+01   -0.69968E+01  7473   0.418E+01    0.261E+01
RMM:   9    -0.226335904316E+03   -0.35070E+01   -0.41306E+01  9592   0.161E+01    0.155E+01
RMM:  10    -0.226583173582E+03   -0.24727E+00   -0.85631E+00  9954   0.841E+00    0.841E+00
RMM:  11    -0.226546418649E+03    0.36755E-01   -0.39161E+00 10211   0.531E+00    0.474E+00
RMM:  12    -0.226591491159E+03   -0.45073E-01   -0.13253E+00 10699   0.260E+00    0.309E+00
RMM:  13    -0.226595697571E+03   -0.42064E-02   -0.39899E-01  9909   0.174E+00    0.236E+00
RMM:  14    -0.226617148821E+03   -0.21451E-01   -0.22142E-01  9914   0.121E+00    0.147E+00
RMM:  15    -0.226624328025E+03   -0.71792E-02   -0.92732E-02  9214   0.695E-01    0.894E-01
RMM:  16    -0.226626685498E+03   -0.23575E-02   -0.50207E-02  8039   0.616E-01    0.760E-01
RMM:  17    -0.226629704697E+03   -0.30192E-02   -0.43025E-02  8678   0.549E-01    0.395E-01
RMM:  18    -0.226630634139E+03   -0.92944E-03   -0.17051E-02  6242   0.419E-01    0.268E-01
RMM:  19    -0.226631529888E+03   -0.89575E-03   -0.10208E-02  5971   0.300E-01    0.231E-01
RMM:  20    -0.226632149554E+03   -0.61967E-03   -0.78296E-03  5776   0.296E-01
   1 F= -.22663215E+03 E0= -.22663215E+03  d E =0.000000E+00  mag=    18.0003
