 vasp.5.4.4.18Apr17-6-g9f103f2a35 (build Oct 03 2018 13:58:34) complex          
  
 executed on             LinuxIFC date 2019.06.04  01:14:48
 running on   40 total cores
 distrk:  each k-point on   20 cores,    2 groups
 distr:  one band on NCORES_PER_BAND=  10 cores,    2 groups


--------------------------------------------------------------------------------------------------------


 INCAR:
 POTCAR:    PAW_PBE La 06Sep2000                  
 POTCAR:    PAW_PBE Mn 06Sep2000                  
 POTCAR:    PAW_PBE Ni 02Aug2007                  
 POTCAR:    PAW_PBE O 08Apr2002                   

 ----------------------------------------------------------------------------- 
|                                                                             |
|           W    W    AA    RRRRR   N    N  II  N    N   GGGG   !!!           |
|           W    W   A  A   R    R  NN   N  II  NN   N  G    G  !!!           |
|           W    W  A    A  R    R  N N  N  II  N N  N  G       !!!           |
|           W WW W  AAAAAA  RRRRR   N  N N  II  N  N N  G  GGG   !            |
|           WW  WW  A    A  R   R   N   NN  II  N   NN  G    G                |
|           W    W  A    A  R    R  N    N  II  N    N   GGGG   !!!           |
|                                                                             |
|      You have enabled k-point parallelism (KPAR>1).                         |
|      This developmental code was originally  written by Paul Kent at ORNL,  |
|      and carefully double checked in Vienna.                                |
|      GW as well as linear response parallelism added by Martijn Marsman     |
|      and Georg Kresse.                                                      |
|      Carefully verify results versus KPAR=1.                                |
|      Report problems to Paul Kent and Vienna.                               |
|                                                                             |
 ----------------------------------------------------------------------------- 

 POTCAR:    PAW_PBE La 06Sep2000                  
   VRHFIN =La : [core=Kr4d]                                                     
   LEXCH  = PE                                                                  
   EATOM  =   865.9763 eV,   63.6475 Ry                                         
                                                                                
   TITEL  = PAW_PBE La 06Sep2000                                                
   LULTRA =        F    use ultrasoft PP ?                                      
   IUNSCR =        1    unscreen: 0-lin 1-nonlin 2-no                           
   RPACOR =    2.300    partial core radius                                     
   POMASS =  138.900; ZVAL   =   11.000    mass and valenz                      
   RCORE  =    2.800    outmost cutoff radius                                   
   RWIGS  =    2.900; RWIGS  =    1.535    wigner-seitz radius (au A)           
   ENMAX  =  219.292; ENMIN  =  164.469 eV                                      
   RCLOC  =    1.601    cutoff for local pot                                    
   LCOR   =        T    correct aug charges                                     
   LPAW   =        T    paw PP                                                  
   EAUG   =  583.575                                                            
   DEXC   =    0.000                                                            
   RMAX   =    2.853    core radius for proj-oper                               
   RAUG   =    1.300    factor for augmentation sphere                          
   RDEP   =    2.802    radius for radial grids                                 
   RDEPT  =    2.156    core radius for aug-charge                              
                                                                                
   Atomic configuration                                                         
   14 entries                                                                   
     n  l   j            E        occ.                                          
     1  0  0.50    -38741.0879   2.0000                                         
     2  0  0.50     -6166.6801   2.0000                                         
     2  1  1.50     -5526.1593   6.0000                                         
     3  0  0.50     -1319.0200   2.0000                                         
     3  1  1.50     -1114.5963   6.0000                                         
     3  2  2.50      -821.1793  10.0000                                         
     4  0  0.50      -266.3851   2.0000                                         
     4  1  1.50      -199.9276   6.0000                                         
     4  2  2.50      -103.8239  10.0000                                         
     5  0  0.50       -38.9172   2.0000                                         
     6  0  0.50        -3.6792   2.0000                                         
     5  1  1.50       -22.3948   6.0000                                         
     5  2  2.50        -3.0911   0.9999                                         
     4  3  2.50        -4.3603   0.0001                                         
   Description                                                                  
     l       E           TYP  RCUT    TYP  RCUT                                 
     0    -38.9171645     23  2.800                                             
     0     -3.6792381     23  2.800                                             
     1    -22.3948300     23  2.500                                             
     1     27.2116520     23  2.500                                             
     2     -3.0910934     23  2.500                                             
     2      1.0119135     23  2.500                                             
     3     -4.3602911     23  2.800                                             
     3     -5.7208737     23  2.800                                             
  local pseudopotential read in
  partial core-charges read in
  partial kinetic energy density read in
  atomic valenz-charges read in
  non local Contribution for L=           0  read in
    real space projection operators read in
  non local Contribution for L=           0  read in
    real space projection operators read in
  non local Contribution for L=           1  read in
    real space projection operators read in
  non local Contribution for L=           1  read in
    real space projection operators read in
  non local Contribution for L=           2  read in
    real space projection operators read in
  non local Contribution for L=           2  read in
    real space projection operators read in
  non local Contribution for L=           3  read in
    real space projection operators read in
  non local Contribution for L=           3  read in
    real space projection operators read in
    PAW grid and wavefunctions read in
 
   number of l-projection  operators is LMAX  =           8
   number of lm-projection operators is LMMAX =          32
 
 POTCAR:    PAW_PBE Mn 06Sep2000                  
   VRHFIN =Mn: d6 s1                                                            
   LEXCH  = PE                                                                  
   EATOM  =   416.7541 eV,   30.6306 Ry                                         
                                                                                
   TITEL  = PAW_PBE Mn 06Sep2000                                                
   LULTRA =        F    use ultrasoft PP ?                                      
   IUNSCR =        1    unscreen: 0-lin 1-nonlin 2-no                           
   RPACOR =    2.000    partial core radius                                     
   POMASS =   54.938; ZVAL   =    7.000    mass and valenz                      
   RCORE  =    2.300    outmost cutoff radius                                   
   RWIGS  =    2.500; RWIGS  =    1.323    wigner-seitz radius (au A)           
   ENMAX  =  269.864; ENMIN  =  202.398 eV                                      
   RCLOC  =    1.725    cutoff for local pot                                    
   LCOR   =        T    correct aug charges                                     
   LPAW   =        T    paw PP                                                  
   EAUG   =  500.711                                                            
   DEXC   =    0.000                                                            
   RMAX   =    2.343    core radius for proj-oper                               
   RAUG   =    1.300    factor for augmentation sphere                          
   RDEP   =    2.338    radius for radial grids                                 
   RDEPT  =    1.911    core radius for aug-charge                              
                                                                                
   Atomic configuration                                                         
    9 entries                                                                   
     n  l   j            E        occ.                                          
     1  0  0.50     -6424.8288   2.0000                                         
     2  0  0.50      -739.1154   2.0000                                         
     2  1  1.50      -625.3949   6.0000                                         
     3  0  0.50       -81.6100   2.0000                                         
     3  1  1.50       -50.4667   6.0000                                         
     3  2  2.50        -3.3745   6.0000                                         
     4  0  0.50        -4.1331   1.0000                                         
     4  1  0.50        -4.0817   0.0000                                         
     4  3  2.50        -1.3606   0.0000                                         
   Description                                                                  
     l       E           TYP  RCUT    TYP  RCUT                                 
     2     -3.3744664     23  2.300                                             
     2     -4.7350490     23  2.300                                             
     0     -4.1331408     23  2.300                                             
     0      7.6656614     23  2.300                                             
     1     -2.7211652     23  2.300                                             
     1     20.4087390     23  2.300                                             
  local pseudopotential read in
  partial core-charges read in
  partial kinetic energy density read in
  atomic valenz-charges read in
  non local Contribution for L=           2  read in
    real space projection operators read in
  non local Contribution for L=           2  read in
    real space projection operators read in
  non local Contribution for L=           0  read in
    real space projection operators read in
  non local Contribution for L=           0  read in
    real space projection operators read in
  non local Contribution for L=           1  read in
    real space projection operators read in
  non local Contribution for L=           1  read in
    real space projection operators read in
    PAW grid and wavefunctions read in
 
   number of l-projection  operators is LMAX  =           6
   number of lm-projection operators is LMMAX =          18
 
 POTCAR:    PAW_PBE Ni 02Aug2007                  
   VRHFIN =Ni:                                                                  
   LEXCH  = PE                                                                  
   EATOM  =  1077.6739 eV,   79.2068 Ry                                         
                                                                                
   TITEL  = PAW_PBE Ni 02Aug2007                                                
   LULTRA =        F    use ultrasoft PP ?                                      
   IUNSCR =        1    unscreen: 0-lin 1-nonlin 2-no                           
   RPACOR =    2.000    partial core radius                                     
   POMASS =   58.690; ZVAL   =   10.000    mass and valenz                      
   RCORE  =    2.300    outmost cutoff radius                                   
   RWIGS  =    2.430; RWIGS  =    1.286    wigner-seitz radius (au A)           
   ENMAX  =  269.532; ENMIN  =  202.149 eV                                      
   RCLOC  =    1.201    cutoff for local pot                                    
   LCOR   =        T    correct aug charges                                     
   LPAW   =        T    paw PP                                                  
   EAUG   =  544.565                                                            
   DEXC   =    0.000                                                            
   RMAX   =    2.357    core radius for proj-oper                               
   RAUG   =    1.300    factor for augmentation sphere                          
   RDEP   =    2.390    radius for radial grids                                 
   RDEPT  =    1.838    core radius for aug-charge                              
                                                                                
   Atomic configuration                                                         
    9 entries                                                                   
     n  l   j            E        occ.                                          
     1  0  0.50     -8206.4253   2.0000                                         
     2  0  0.50      -976.1748   2.0000                                         
     2  1  1.50      -839.0571   6.0000                                         
     3  0  0.50      -105.9991   2.0000                                         
     3  1  1.50       -66.4603   6.0000                                         
     3  2  2.50        -4.6458   9.0000                                         
     4  0  0.50        -4.4926   1.0000                                         
     4  1  1.50        -4.0817   0.0000                                         
     4  3  2.50        -1.3606   0.0000                                         
   Description                                                                  
     l       E           TYP  RCUT    TYP  RCUT                                 
     2     -4.6457903     23  2.300                                             
     2     -6.0063729     23  2.300                                             
     0     -4.4925590     23  2.300                                             
     0      5.0102601     23  2.300                                             
     1     -2.7211652     23  2.300                                             
     1     16.5183231     23  2.300                                             
  local pseudopotential read in
  partial core-charges read in
  partial kinetic energy density read in
  atomic valenz-charges read in
  non local Contribution for L=           2  read in
    real space projection operators read in
  non local Contribution for L=           2  read in
    real space projection operators read in
  non local Contribution for L=           0  read in
    real space projection operators read in
  non local Contribution for L=           0  read in
    real space projection operators read in
  non local Contribution for L=           1  read in
    real space projection operators read in
  non local Contribution for L=           1  read in
    real space projection operators read in
    PAW grid and wavefunctions read in
 
   number of l-projection  operators is LMAX  =           6
   number of lm-projection operators is LMMAX =          18
 
 POTCAR:    PAW_PBE O 08Apr2002                   
   VRHFIN =O: s2p4                                                              
   LEXCH  = PE                                                                  
   EATOM  =   432.3788 eV,   31.7789 Ry                                         
                                                                                
   TITEL  = PAW_PBE O 08Apr2002                                                 
   LULTRA =        F    use ultrasoft PP ?                                      
   IUNSCR =        1    unscreen: 0-lin 1-nonlin 2-no                           
   RPACOR =    1.200    partial core radius                                     
   POMASS =   16.000; ZVAL   =    6.000    mass and valenz                      
   RCORE  =    1.520    outmost cutoff radius                                   
   RWIGS  =    1.550; RWIGS  =    0.820    wigner-seitz radius (au A)           
   ENMAX  =  400.000; ENMIN  =  300.000 eV                                      
   ICORE  =        2    local potential                                         
   LCOR   =        T    correct aug charges                                     
   LPAW   =        T    paw PP                                                  
   EAUG   =  605.392                                                            
   DEXC   =    0.000                                                            
   RMAX   =    1.553    core radius for proj-oper                               
   RAUG   =    1.300    factor for augmentation sphere                          
   RDEP   =    1.550    radius for radial grids                                 
   RDEPT  =    1.329    core radius for aug-charge                              
                                                                                
   Atomic configuration                                                         
    4 entries                                                                   
     n  l   j            E        occ.                                          
     1  0  0.50      -514.6923   2.0000                                         
     2  0  0.50       -23.9615   2.0000                                         
     2  1  0.50        -9.0305   4.0000                                         
     3  2  1.50        -9.5241   0.0000                                         
   Description                                                                  
     l       E           TYP  RCUT    TYP  RCUT                                 
     0    -23.9615318     23  1.200                                             
     0     -9.5240782     23  1.200                                             
     1     -9.0304911     23  1.520                                             
     1      8.1634956     23  1.520                                             
     2     -9.5240782      7  1.500                                             
  local pseudopotential read in
  partial core-charges read in
  partial kinetic energy density read in
  kinetic energy density of atom read in
  atomic valenz-charges read in
  non local Contribution for L=           0  read in
    real space projection operators read in
  non local Contribution for L=           0  read in
    real space projection operators read in
  non local Contribution for L=           1  read in
    real space projection operators read in
  non local Contribution for L=           1  read in
    real space projection operators read in
    PAW grid and wavefunctions read in
 
   number of l-projection  operators is LMAX  =           4
   number of lm-projection operators is LMMAX =           8
 
 Optimization of the real space projectors (new method)

 maximal supplied QI-value         = 13.42
 optimisation between [QCUT,QGAM] = [ 11.67, 23.35] = [ 38.16,152.62] Ry 
 Optimized for a Real-space Cutoff    1.63 Angstroem

   l    n(q)    QCUT    max X(q) W(low)/X(q) W(high)/X(q)  e(spline) 
   0     11    11.673    13.882    0.27E-04    0.79E-05    0.11E-06
   0     11    11.673    12.184    0.39E-04    0.13E-04    0.19E-06
   1     11    11.673     4.523    0.73E-05    0.76E-05    0.12E-06
   1     11    11.673     4.424    0.87E-05    0.13E-04    0.19E-06
   2     10    11.673    52.481    0.65E-04    0.36E-04    0.18E-06
   2     10    11.673    38.501    0.61E-04    0.33E-04    0.17E-06
   3     10    11.673    65.631    0.17E-03    0.14E-03    0.37E-06
   3     10    11.673    56.854    0.17E-03    0.14E-03    0.37E-06
 Optimization of the real space projectors (new method)

 maximal supplied QI-value         = 16.25
 optimisation between [QCUT,QGAM] = [ 11.54, 23.24] = [ 37.28,151.24] Ry 
 Optimized for a Real-space Cutoff    1.53 Angstroem

   l    n(q)    QCUT    max X(q) W(low)/X(q) W(high)/X(q)  e(spline) 
   2     10    11.539   110.144    0.12E-03    0.13E-03    0.25E-06
   2     10    11.539   103.200    0.12E-03    0.13E-03    0.25E-06
   0     11    11.539    68.437    0.46E-04    0.21E-04    0.32E-06
   0     11    11.539    33.971    0.37E-04    0.19E-04    0.29E-06
   1     10    11.539    17.065    0.51E-04    0.22E-04    0.13E-06
   1     10    11.539    12.540    0.41E-04    0.18E-04    0.11E-06
 Optimization of the real space projectors (new method)

 maximal supplied QI-value         = 16.25
 optimisation between [QCUT,QGAM] = [ 11.54, 23.24] = [ 37.28,151.24] Ry 
 Optimized for a Real-space Cutoff    1.45 Angstroem

   l    n(q)    QCUT    max X(q) W(low)/X(q) W(high)/X(q)  e(spline) 
   2      9    11.539    60.317    0.19E-03    0.47E-04    0.16E-06
   2      9    11.539    55.921    0.19E-03    0.48E-04    0.16E-06
   0     10    11.539    51.690    0.80E-04    0.50E-04    0.24E-06
   0     10    11.539    30.015    0.73E-04    0.45E-04    0.22E-06
   1     10    11.539    18.849    0.87E-04    0.16E-03    0.71E-07
   1     10    11.539    14.624    0.73E-04    0.13E-03    0.64E-07
 Optimization of the real space projectors (new method)

 maximal supplied QI-value         = 24.76
 optimisation between [QCUT,QGAM] = [ 11.64, 23.27] = [ 37.91,151.63] Ry 
 Optimized for a Real-space Cutoff    1.14 Angstroem

   l    n(q)    QCUT    max X(q) W(low)/X(q) W(high)/X(q)  e(spline) 
   0      8    11.635    20.381    0.10E-03    0.33E-03    0.24E-06
   0      8    11.635    15.268    0.11E-03    0.35E-03    0.26E-06
   1      7    11.635     5.964    0.24E-03    0.31E-03    0.30E-06
   1      7    11.635     5.382    0.22E-03    0.25E-03    0.26E-06
  PAW_PBE La 06Sep2000                  :
 energy of atom  1       EATOM= -865.9763
 kinetic energy error for atom=    0.0009 (will be added to EATOM!!)
  PAW_PBE Mn 06Sep2000                  :
 energy of atom  2       EATOM= -416.7541
 kinetic energy error for atom=    0.0024 (will be added to EATOM!!)
  PAW_PBE Ni 02Aug2007                  :
 energy of atom  3       EATOM=-1077.6739
 kinetic energy error for atom=    0.0030 (will be added to EATOM!!)
  PAW_PBE O 08Apr2002                   :
 energy of atom  4       EATOM= -432.3788
 kinetic energy error for atom=    0.0208 (will be added to EATOM!!)
 
 
 POSCAR: SCEL6_1_3_2_1_0_0/0                     
  positions in direct lattice
  velocities in cartesian coordinates
 exchange correlation table for  LEXCH =        8
   RHO(1)=    0.500       N(1)  =     2000
   RHO(2)=  100.500       N(2)  =     4000
 


--------------------------------------------------------------------------------------------------------


 ion  position               nearest neighbor table
   1  0.000  0.654  0.162-  30 2.67  13 2.72  13 2.72  22 2.73  22 2.73  25 2.77  28 2.80  23 2.82
                            23 2.82  12 3.31  12 3.31   8 3.39   8 3.39  10 3.41  10 3.41
   2  0.000  0.333  0.324-  30 2.67  22 2.72  22 2.72  18 2.73  18 2.73  29 2.76  28 2.79  12 3.31
                            12 3.31  10 3.41  10 3.41  11 3.41  11 3.41
   3  0.000  0.003  0.499-  21 2.74  21 2.74  27 2.75  15 2.76  15 2.76  29 2.76  17 2.77  17 2.77
                            20 2.79  20 2.79  28 2.79  26 2.79   9 3.38   9 3.38  11 3.38  11 3.38
   4  0.000  0.663  0.667-  19 2.74  19 2.74  27 2.75  16 2.76  16 2.76  25 2.76  14 2.77  14 2.77
                            20 2.79  20 2.79  26 2.79  28 2.79   9 3.38   9 3.38   8 3.38   8 3.38
   5  0.000  0.333  0.843-  30 2.67  24 2.72  24 2.72  13 2.73  13 2.73  25 2.76  26 2.79  12 3.31
                            12 3.31   7 3.41   7 3.41   8 3.41   8 3.41
   6  0.000  0.012  0.004-  30 2.67  18 2.72  18 2.72  24 2.73  24 2.73  29 2.77  26 2.80  23 2.82
                            23 2.82  12 3.31  12 3.31  11 3.39  11 3.39   7 3.41   7 3.41
   7  0.500  0.999  0.750-  24 1.96  26 1.96  26 1.96  20 1.96  15 1.97  14 1.98   5 3.41   5 3.41
                             3 3.41   3 3.41   6 3.41   6 3.41   4 3.41   4 3.41
   8  0.500  0.668  0.917-  14 1.93  13 1.94  25 1.96  25 1.96  23 1.96  19 1.98   4 3.38   4 3.38
                             1 3.39   1 3.39   5 3.41   5 3.41
   9  0.500  0.333  0.583-  15 1.95  16 1.95  27 1.96  27 1.96  21 1.96  19 1.96   3 3.38   3 3.38
                             4 3.38   4 3.38
  10  0.500  0.668  0.417-  22 1.96  28 1.96  28 1.96  20 1.96  16 1.97  17 1.98   2 3.41   2 3.41
                             4 3.41   4 3.41   1 3.41   1 3.41   3 3.41   3 3.41
  11  0.500  0.999  0.250-  17 1.93  18 1.94  29 1.96  29 1.96  23 1.96  21 1.98   3 3.38   3 3.38
                             6 3.39   6 3.39   2 3.41   2 3.41
  12  0.500  0.333  0.083-  30 1.96  30 1.96  24 1.98  22 1.98  18 1.99  13 1.99   2 3.31   2 3.31
                             5 3.31   5 3.31   6 3.31   6 3.31   1 3.31   1 3.31
  13  0.500  0.503  0.999-   8 1.94  12 1.99   1 2.72   1 2.72   5 2.73   5 2.73
  14  0.500  0.830  0.833-   8 1.93   7 1.98   4 2.77   4 2.77
  15  0.500  0.166  0.665-   9 1.95   7 1.97   3 2.76   3 2.76
  16  0.500  0.501  0.502-   9 1.95  10 1.97   4 2.76   4 2.76
  17  0.500  0.837  0.334-  11 1.93  10 1.98   3 2.77   3 2.77
  18  0.500  0.164  0.168-  11 1.94  12 1.99   6 2.72   6 2.72   2 2.73   2 2.73
  19  0.500  0.500  0.749-   9 1.96   8 1.98   4 2.74   4 2.74
  20  0.500  0.833  0.583-  10 1.96   7 1.96   4 2.79   4 2.79   3 2.79   3 2.79
  21  0.500  0.166  0.418-   9 1.96  11 1.98   3 2.74   3 2.74
  22  0.500  0.501  0.251-  10 1.96  12 1.98   2 2.72   2 2.72   1 2.73   1 2.73
  23  0.500  0.833  0.083-   8 1.96  11 1.96   1 2.82   1 2.82   6 2.82   6 2.82
  24  0.500  0.165  0.915-   7 1.96  12 1.98   5 2.72   5 2.72   6 2.73   6 2.73
  25  0.000  0.665  0.916-   8 1.96   8 1.96   4 2.76   5 2.76   1 2.77
  26  0.000  0.999  0.750-   7 1.96   7 1.96   5 2.79   4 2.79   3 2.79   6 2.80
  27  0.000  0.333  0.583-   9 1.96   9 1.96   3 2.75   4 2.75
  28  0.000  0.668  0.417-  10 1.96  10 1.96   2 2.79   3 2.79   4 2.79   1 2.80
  29  0.000  0.002  0.251-  11 1.96  11 1.96   3 2.76   2 2.76   6 2.77
  30  0.000  0.333  0.083-  12 1.96  12 1.96   2 2.67   5 2.67   6 2.67   1 2.67
 
  LATTYP: Found a simple monoclinic cell.
 ALAT       =    11.8001221605
 B/A-ratio  =     0.3317501631
 C/A-ratio  =     1.4896586074
 COS(beta)  =    -0.8949116623
  
  Lattice vectors:
  
 A1 = (   0.0000000000, -11.8001219987,   0.0019539131)
 A2 = (   3.9146924509,   0.0000000000,   0.0000000000)
 A3 = (   0.0000000000,  15.7321932571,   7.8415290207)


Analysis of symmetry for initial positions (statically):
=====================================================================
 Subroutine PRICEL returns:
 Original cell was already a primitive cell.
 

 Routine SETGRP: Setting up the symmetry group for a 
 simple monoclinic supercell.


 Subroutine GETGRP returns: Found  4 space group operations
 (whereof  2 operations were pure point group operations)
 out of a pool of  4 trial point group operations.


The static configuration has the point symmetry C_1h.
 The point group associated with its full space group is C_2h.


Analysis of symmetry for dynamics (positions and initial velocities):
=====================================================================
 Subroutine PRICEL returns:
 Original cell was already a primitive cell.
 

 Routine SETGRP: Setting up the symmetry group for a 
 simple monoclinic supercell.


 Subroutine GETGRP returns: Found  4 space group operations
 (whereof  2 operations were pure point group operations)
 out of a pool of  4 trial point group operations.


The dynamic configuration has the point symmetry C_1h.
 The point group associated with its full space group is C_2h.


Analysis of structural, dynamic, and magnetic symmetry:
=====================================================================
 Subroutine PRICEL returns:
 Original cell was already a primitive cell.
 

 Routine SETGRP: Setting up the symmetry group for a 
 simple monoclinic supercell.


 Subroutine GETGRP returns: Found  4 space group operations
 (whereof  2 operations were pure point group operations)
 out of a pool of  4 trial point group operations.


The magnetic configuration has the point symmetry C_1h.
 The point group associated with its full space group is C_2h.


 Subroutine INISYM returns: Found  4 space group operations
 (whereof  2 operations are pure point group operations),
 and found     1 'primitive' translations

 
 
 KPOINTS: Automatic mesh                          

Automatic generation of k-mesh.
 generate k-points for:    5    2    2
Space group operators:
 irot       det(A)        alpha          n_x          n_y          n_z        tau_x        tau_y        tau_z
    1     1.000000     0.000000     1.000000     0.000000     0.000000     0.000000     0.000000     0.000000
    2    -1.000000   180.000000     1.000000     0.000000     0.000000     0.000000     0.000000     0.000000
    3    -1.000000     0.000000     1.000000     0.000000     0.000000     0.000000     0.666667     0.166667
    4     1.000000   180.000000     1.000000     0.000000     0.000000     0.000000     0.666667     0.166667
 
 Subroutine IBZKPT returns following result:
 ===========================================
 
 Found     12 irreducible k-points:
 
 Following reciprocal coordinates:
            Coordinates               Weight
  0.000000  0.000000  0.000000      1.000000
  0.200000  0.000000  0.000000      2.000000
  0.400000  0.000000  0.000000      2.000000
  0.000000  0.500000  0.000000      1.000000
  0.200000  0.500000  0.000000      2.000000
  0.400000  0.500000  0.000000      2.000000
  0.000000  0.000000  0.500000      1.000000
  0.200000  0.000000  0.500000      2.000000
  0.400000  0.000000  0.500000      2.000000
  0.000000  0.500000  0.500000      1.000000
  0.200000  0.500000  0.500000      2.000000
  0.400000  0.500000  0.500000      2.000000
 
 Following cartesian coordinates:
            Coordinates               Weight
  0.000000  0.000000  0.000000      1.000000
 -0.051090  0.000000  0.000000      2.000000
 -0.102179  0.000000  0.000000      2.000000
  0.000000  0.042379  0.042502      1.000000
 -0.051090  0.042379  0.042502      2.000000
 -0.102179  0.042379  0.042502      2.000000
  0.000000  0.042369 -0.021240      1.000000
 -0.051090  0.042369 -0.021240      2.000000
 -0.102179  0.042369 -0.021240      2.000000
  0.000000  0.084748  0.021261      1.000000
 -0.051090  0.084748  0.021261      2.000000
 -0.102179  0.084748  0.021261      2.000000
 
 TETIRR: Found     60 inequivalent tetrahedra from      120


--------------------------------------------------------------------------------------------------------




 Dimension of arrays:
   k-points           NKPTS =     12   k-points in BZ     NKDIM =     12   number of bands    NBANDS=    144
   number of dos      NEDOS =    301   number of ions     NIONS =     30
   non local maximal  LDIM  =      8   non local SUM 2l+1 LMDIM =     32
   total plane-waves  NPLWV = 176400
   max r-space proj   IRMAX =   8836   max aug-charges    IRDMAX=  25635
   dimension x,y,z NGX =    30 NGY =   70 NGZ =   84
   dimension x,y,z NGXF=    60 NGYF=  140 NGZF=  168
   support grid    NGXF=    60 NGYF=  140 NGZF=  168
   ions per type =               6   5   1  18
   NGX,Y,Z   is equivalent  to a cutoff of  12.74, 13.26, 12.57 a.u.
   NGXF,Y,Z  is equivalent  to a cutoff of  25.48, 26.53, 25.14 a.u.

 SYSTEM =  final                                   
 POSCAR =  SCEL6_1_3_2_1_0_0/0                     

 Startparameter for this run:
   NWRITE =      2    write-flag & timer
   PREC   = accura    normal or accurate (medium, high low for compatibility)
   ISTART =      0    job   : 0-new  1-cont  2-samecut
   ICHARG =      1    charge: 1-file 2-atom 10-const
   ISPIN  =      2    spin polarized calculation?
   LNONCOLLINEAR =      F non collinear calculations
   LSORBIT =      F    spin-orbit coupling
   INIWAV =      1    electr: 0-lowe 1-rand  2-diag
   LASPH  =      F    aspherical Exc in radial PAW
   METAGGA=      F    non-selfconsistent MetaGGA calc.

 Electronic Relaxation 1
   ENCUT  =  520.0 eV  38.22 Ry    6.18 a.u.   7.28 16.31 20.66*2*pi/ulx,y,z
   ENINI  =  520.0     initial cutoff
   ENAUG  =  605.4 eV  augmentation charge cutoff
   NELM   =    100;   NELMIN=  2; NELMDL= -5     # of ELM steps 
   EDIFF  = 0.1E-02   stopping-criterion for ELM
   LREAL  =      T    real-space projection
   NLSPLINE    = F    spline interpolate recip. space projectors
   LCOMPAT=      F    compatible to vasp.4.4
   GGA_COMPAT  = T    GGA compatible to vasp.4.4-vasp.4.6
   LMAXPAW     = -100 max onsite density
   LMAXMIX     =    6 max onsite mixed and CHGCAR
   VOSKOWN=      0    Vosko Wilk Nusair interpolation
   ROPT   =   -0.00025  -0.00025  -0.00025  -0.00025
 Ionic relaxation
   EDIFFG = 0.1E-01   stopping-criterion for IOM
   NSW    =      0    number of steps for IOM
   NBLOCK =      1;   KBLOCK =      1    inner block; outer block 
   IBRION =     -1    ionic relax: 0-MD 1-quasi-New 2-CG
   NFREE  =      0    steps in history (QN), initial steepest desc. (CG)
   ISIF   =      2    stress and relaxation
   IWAVPR =     10    prediction:  0-non 1-charg 2-wave 3-comb
   ISYM   =      2    0-nonsym 1-usesym 2-fastsym
   LCORR  =      T    Harris-Foulkes like correction to forces

   POTIM  = 0.5000    time-step for ionic-motion
   TEIN   =    0.0    initial temperature
   TEBEG  =    0.0;   TEEND  =   0.0 temperature during run
   SMASS  =  -3.00    Nose mass-parameter (am)
   estimated Nose-frequenzy (Omega)   =  0.10E-29 period in steps =****** mass=  -0.350E-27a.u.
   SCALEE = 1.0000    scale energy and forces
   NPACO  =    256;   APACO  = 16.0  distance and # of slots for P.C.
   PSTRESS=    0.0 pullay stress

  Mass of Ions in am
   POMASS = 138.90 54.94 58.69 16.00
  Ionic Valenz
   ZVAL   =  11.00  7.00 10.00  6.00
  Atomic Wigner-Seitz radii
   RWIGS  =  -1.00 -1.00 -1.00 -1.00
  virtual crystal weights 
   VCA    =   1.00  1.00  1.00  1.00
   NELECT =     219.0000    total number of electrons
   NUPDOWN=      -1.0000    fix difference up-down

 DOS related values:
   EMIN   =  10.00;   EMAX   =-10.00  energy-range for DOS
   EFERMI =   0.00
   ISMEAR =    -5;   SIGMA  =   0.05  broadening in eV -4-tet -1-fermi 0-gaus

 Electronic relaxation 2 (details)
   IALGO  =     68    algorithm
   LDIAG  =      T    sub-space diagonalisation (order eigenvalues)
   LSUBROT=      F    optimize rotation matrix (better conditioning)
   TURBO    =      0    0=normal 1=particle mesh
   IRESTART =      0    0=no restart 2=restart with 2 vectors
   NREBOOT  =      0    no. of reboots
   NMIN     =      0    reboot dimension
   EREF     =   0.00    reference energy to select bands
   IMIX   =      4    mixing-type and parameters
     AMIX     =   0.40;   BMIX     =  1.00
     AMIX_MAG =   1.60;   BMIX_MAG =  1.00
     AMIN     =   0.10
     WC   =   100.;   INIMIX=   1;  MIXPRE=   1;  MAXMIX= -45

 Intra band minimization:
   WEIMIN = 0.0000     energy-eigenvalue tresh-hold
   EBREAK =  0.17E-05  absolut break condition
   DEPER  =   0.30     relativ break condition  

   TIME   =   0.40     timestep for ELM

  volume/ion in A,a.u.               =      12.08        81.51
  Fermi-wavevector in a.u.,A,eV,Ry     =   1.384139  2.615644 26.066610  1.915842
  Thomas-Fermi vector in A             =   2.508672
 
 Write flags
   LWAVE        =      F    write WAVECAR
   LDOWNSAMPLE  =      F    k-point downsampling of WAVECAR
   LCHARG       =      T    write CHGCAR
   LVTOT        =      F    write LOCPOT, total local potential
   LVHAR        =      F    write LOCPOT, Hartree potential only
   LELF         =      F    write electronic localiz. function (ELF)
   LORBIT       =     11    0 simple, 1 ext, 2 COOP (PROOUT), +10 PAW based schemes


 Dipole corrections
   LMONO  =      F    monopole corrections only (constant potential shift)
   LDIPOL =      F    correct potential (dipole corrections)
   IDIPOL =      0    1-x, 2-y, 3-z, 4-all directions 
   EPSILON=  1.0000000 bulk dielectric constant

 LDA+U is selected, type is set to LDAUTYPE =  2
   angular momentum for each species LDAUL =     0    2    2    0
   U (eV)           for each species LDAUU =   0.0  3.9  6.2  0.0
   J (eV)           for each species LDAUJ =   0.0  0.0  0.0  0.0
 Exchange correlation treatment:
   GGA     =    --    GGA type
   LEXCH   =     8    internal setting for exchange type
   VOSKOWN=      0    Vosko Wilk Nusair interpolation
   LHFCALC =     F    Hartree Fock is set to
   LHFONE  =     F    Hartree Fock one center treatment
   AEXX    =    0.0000 exact exchange contribution

 Linear response parameters
   LEPSILON=     F    determine dielectric tensor
   LRPA    =     F    only Hartree local field effects (RPA)
   LNABLA  =     F    use nabla operator in PAW spheres
   LVEL    =     F    velocity operator in full k-point grid
   LINTERFAST=   F  fast interpolation
   KINTER  =     0    interpolate to denser k-point grid
   CSHIFT  =0.1000    complex shift for real part using Kramers Kronig
   OMEGAMAX=  -1.0    maximum frequency
   DEG_THRESHOLD= 0.2000000E-02 threshold for treating states as degnerate
   RTIME   =   -0.100 relaxation time in fs
  (WPLASMAI=    0.000 imaginary part of plasma frequency in eV, 0.658/RTIME)
   DFIELD  = 0.0000000 0.0000000 0.0000000 field for delta impulse in time
 
 Orbital magnetization related:
   ORBITALMAG=     F  switch on orbital magnetization
   LCHIMAG   =     F  perturbation theory with respect to B field
   DQ        =  0.001000  dq finite difference perturbation B field
   LLRAUG    =     F  two centre corrections for induced B field



--------------------------------------------------------------------------------------------------------


 Static calculation
 charge density and potential will be updated during run
 spin polarized calculation
 RMM-DIIS sequential band-by-band and
  variant of blocked Davidson during initial phase
 perform sub-space diagonalisation
    before iterative eigenvector-optimisation
 modified Broyden-mixing scheme, WC =      100.0
 initial mixing is a Kerker type mixing with AMIX =  0.4000 and BMIX =      1.0000
 Hartree-type preconditioning will be used
 using additional bands           34
 real space projection scheme for non local part
 use partial core corrections
 calculate Harris-corrections to forces 
   (improved forces if not selfconsistent)
 use gradient corrections 
 use of overlap-Matrix (Vanderbilt PP)
 Fermi weights with tetrahedron method with Bloechl corrections


--------------------------------------------------------------------------------------------------------


  energy-cutoff  :      520.00
  volume of cell :      362.35
      direct lattice vectors                 reciprocal lattice vectors
    -3.914692451  0.000000000  0.000000000    -0.255447909  0.000000000  0.000000000
     0.000000000  3.932071258  7.843482934     0.000000000  0.084758962  0.085003273
     0.000000000  7.868050740 -7.845436847     0.000000000  0.084737852 -0.042480525

  length of vectors
     3.914692451  8.773904998 11.111125135     0.255447909  0.120040152  0.094789760


 
 k-points in units of 2pi/SCALE and weight: Automatic mesh                          
   0.00000000  0.00000000  0.00000000       0.050
  -0.05108958  0.00000000  0.00000000       0.100
  -0.10217916  0.00000000  0.00000000       0.100
   0.00000000  0.04237948  0.04250164       0.050
  -0.05108958  0.04237948  0.04250164       0.100
  -0.10217916  0.04237948  0.04250164       0.100
   0.00000000  0.04236893 -0.02124026       0.050
  -0.05108958  0.04236893 -0.02124026       0.100
  -0.10217916  0.04236893 -0.02124026       0.100
   0.00000000  0.08474841  0.02126137       0.050
  -0.05108958  0.08474841  0.02126137       0.100
  -0.10217916  0.08474841  0.02126137       0.100
 
 k-points in reciprocal lattice and weights: Automatic mesh                          
   0.00000000  0.00000000  0.00000000       0.050
   0.20000000  0.00000000  0.00000000       0.100
   0.40000000  0.00000000  0.00000000       0.100
   0.00000000  0.50000000  0.00000000       0.050
   0.20000000  0.50000000  0.00000000       0.100
   0.40000000  0.50000000  0.00000000       0.100
   0.00000000  0.00000000  0.50000000       0.050
   0.20000000  0.00000000  0.50000000       0.100
   0.40000000  0.00000000  0.50000000       0.100
   0.00000000  0.50000000  0.50000000       0.050
   0.20000000  0.50000000  0.50000000       0.100
   0.40000000  0.50000000  0.50000000       0.100
 
 position of ions in fractional coordinates (direct lattice) 
   0.00000000  0.65443066  0.16241759
   0.00000000  0.33329148  0.32386377
   0.00000000  0.00323516  0.49929215
   0.00000000  0.66343154  0.66737455
   0.00000000  0.33337512  0.84280283
   0.00000000  0.01223604  0.00424911
   0.50000000  0.99909274  0.74953265
   0.50000000  0.66800120  0.91688112
   0.50000000  0.33333330  0.58333330
   0.50000000  0.66757396  0.41713405
   0.50000000  0.99866550  0.24978558
   0.50000000  0.33333330  0.08333330
   0.50000000  0.50268625  0.99880427
   0.50000000  0.82966982  0.83287531
   0.50000000  0.16602130  0.66488165
   0.50000000  0.50064540  0.50178505
   0.50000000  0.83699678  0.33379129
   0.50000000  0.16398045  0.16786243
   0.50000000  0.50040830  0.74872216
   0.50000000  0.83333330  0.58333330
   0.50000000  0.16625840  0.41794454
   0.50000000  0.50149273  0.25145747
   0.50000000  0.83333330  0.08333330
   0.50000000  0.16517397  0.91520923
   0.00000000  0.66495590  0.91611107
   0.00000000  0.99866718  0.74950553
   0.00000000  0.33333330  0.58333330
   0.00000000  0.66799952  0.41716117
   0.00000000  0.00171080  0.25055563
   0.00000000  0.33333330  0.08333330
 
 position of ions in cartesian coordinates  (Angst):
   0.00000000  3.85117786  3.85877877
   0.00000000  3.85870247  0.07331329
   0.00000000  3.94117687 -3.89179012
   0.00000000  7.85959689 -0.03223091
   0.00000000  7.94207011 -3.99733432
   0.00000000  0.08154516  0.06263704
  -1.95734623  9.82586472  1.95595579
  -1.95734623  9.84069552 -1.95387696
  -1.95734623  5.90038629 -1.96201052
  -1.95734623  5.90698030  1.96350611
  -1.95734623  5.89214950  5.87333886
  -1.95734623  1.96636092  1.96070791
  -1.95734623  9.83524082 -3.89324482
  -1.95734623  9.81542607 -0.02676956
  -1.95734623  5.88413020 -3.91410177
  -1.95734623  5.91664357 -0.00991927
  -1.95734623  5.91741777  3.94623146
  -1.95734623  1.96553295 -0.03077622
  -1.95734623  7.85862502 -1.94910842
  -1.95734623  7.86642192  1.95973095
  -1.95734623  3.94214874 -1.97491262
  -1.95734623  3.95038533  1.96065595
  -1.95734623  3.93239655  5.88244937
  -1.95734623  7.85038844 -5.88467698
   0.00000000  9.82266233 -1.97172126
   0.00000000  9.82397811  1.95283068
   0.00000000  5.90038629 -1.96201052
   0.00000000  5.90886691  1.96663123
   0.00000000  1.97811144 -1.95229977
   0.00000000  1.96636092  1.96070791
 


--------------------------------------------------------------------------------------------------------


 k-point  1 :   0.0000 0.0000 0.0000  plane waves:    9755
 k-point  2 :   0.2000 0.0000 0.0000  plane waves:    9757
 k-point  3 :   0.4000 0.0000 0.0000  plane waves:    9754
 k-point  4 :   0.0000 0.5000 0.0000  plane waves:    9764
 k-point  5 :   0.2000 0.5000 0.0000  plane waves:    9770
 k-point  6 :   0.4000 0.5000 0.0000  plane waves:    9742
 k-point  7 :   0.0000 0.0000 0.5000  plane waves:    9774
 k-point  8 :   0.2000 0.0000 0.5000  plane waves:    9760
 k-point  9 :   0.4000 0.0000 0.5000  plane waves:    9746
 k-point 10 :   0.0000 0.5000 0.5000  plane waves:    9756
 k-point 11 :   0.2000 0.5000 0.5000  plane waves:    9742
 k-point 12 :   0.4000 0.5000 0.5000  plane waves:    9752

 maximum and minimum number of plane-waves per node :      1005      958

 maximum number of plane-waves:      9774
 maximum index in each direction: 
   IXMAX=    7   IYMAX=   16   IZMAX=   20
   IXMIN=   -7   IYMIN=  -16   IZMIN=  -21


 real space projection operators:
  total allocation   :      21965.77 KBytes
  max/ min on nodes  :       2280.09       2152.19


 parallel 3D FFT for wavefunctions:
    minimum data exchange during FFTs selected (reduces bandwidth)
 parallel 3D FFT for charge:
    minimum data exchange during FFTs selected (reduces bandwidth)


 total amount of memory used by VASP MPI-rank0    78217. kBytes
=======================================================================

   base      :      30000. kBytes
   nonlr-proj:       7313. kBytes
   fftplans  :       2935. kBytes
   grid      :       8258. kBytes
   one-center:        294. kBytes
   wavefun   :      29417. kBytes
 
     INWAV:  cpu time    0.0001: real time    0.0002
 Broyden mixing: mesh for mixing (old mesh)
   NGX = 15   NGY = 33   NGZ = 41
  (NGX  = 60   NGY  =140   NGZ  =168)
  gives a total of  20295 points

 initial charge density was supplied:
 charge density of overlapping atoms calculated
 number of electron     219.0000000 magnetization      23.0000000
 keeping initial charge density in first step


--------------------------------------------------------------------------------------------------------


 Maximum index for non-local projection operator          876
 Maximum index for augmentation-charges         1059 (set IRDMAX)


--------------------------------------------------------------------------------------------------------


 First call to EWALD:  gamma=   0.249
 Maximum number of real-space cells 5x 2x 2
 Maximum number of reciprocal cells 2x 3x 4

    FEWALD:  cpu time    0.0016: real time    0.0016


--------------------------------------- Iteration      1(   1)  ---------------------------------------


    POTLOK:  cpu time    0.0897: real time    0.0918
    SETDIJ:  cpu time    0.0147: real time    0.0147
atom =   1  type =  1  l = 0
 
 onsite density matrix
 
spin component  1
 
  1.0989
 
spin component  2
 
  1.0989
 
 occupancies and eigenvectors
 
  o =  1.0989  v =  1.0000  0.0000      0.0000  0.0000
  o =  1.0989  v =  0.0000  1.0000      0.0000  0.0000
atom =   2  type =  1  l = 0
 
 onsite density matrix
 
spin component  1
 
  1.0989
 
spin component  2
 
  1.0989
 
 occupancies and eigenvectors
 
  o =  1.0989  v =  1.0000  0.0000      0.0000  0.0000
  o =  1.0989  v =  0.0000  1.0000      0.0000  0.0000
atom =   3  type =  1  l = 0
 
 onsite density matrix
 
spin component  1
 
  1.0989
 
spin component  2
 
  1.0989
 
 occupancies and eigenvectors
 
  o =  1.0989  v =  1.0000  0.0000      0.0000  0.0000
  o =  1.0989  v =  0.0000  1.0000      0.0000  0.0000
atom =   4  type =  1  l = 0
 
 onsite density matrix
 
spin component  1
 
  1.0989
 
spin component  2
 
  1.0989
 
 occupancies and eigenvectors
 
  o =  1.0989  v =  1.0000  0.0000      0.0000  0.0000
  o =  1.0989  v =  0.0000  1.0000      0.0000  0.0000
atom =   5  type =  1  l = 0
 
 onsite density matrix
 
spin component  1
 
  1.0989
 
spin component  2
 
  1.0989
 
 occupancies and eigenvectors
 
  o =  1.0989  v =  1.0000  0.0000      0.0000  0.0000
  o =  1.0989  v =  0.0000  1.0000      0.0000  0.0000
atom =   6  type =  1  l = 0
 
 onsite density matrix
 
spin component  1
 
  1.0989
 
spin component  2
 
  1.0989
 
 occupancies and eigenvectors
 
  o =  1.0989  v =  1.0000  0.0000      0.0000  0.0000
  o =  1.0989  v =  0.0000  1.0000      0.0000  0.0000
atom =   7  type =  2  l = 2
 
 onsite density matrix
 
spin component  1
 
  0.8272  0.0000  0.0000  0.0000  0.0000
  0.0000  0.8272  0.0000  0.0000  0.0000
  0.0000  0.0000  0.8272  0.0000  0.0000
  0.0000  0.0000  0.0000  0.8272  0.0000
  0.0000  0.0000  0.0000  0.0000  0.8272
 
spin component  2
 
  0.2256  0.0000  0.0000  0.0000  0.0000
  0.0000  0.2256  0.0000  0.0000  0.0000
  0.0000  0.0000  0.2256  0.0000  0.0000
  0.0000  0.0000  0.0000  0.2256  0.0000
  0.0000  0.0000  0.0000  0.0000  0.2256
 
 occupancies and eigenvectors
 
  o =  0.2256  v =  0.0000  0.0000  0.0000  0.0000  0.0000  0.0000  0.0000  1.0000  0.0000  0.0000      0.0000  0.0000  0.0000  0.0000  0.0000  0.0000  0.0000  0.0000  0.0000  0.0000
  o =  0.2256  v =  0.0000  0.0000  0.0000  0.0000  0.0000  1.0000  0.0000  0.0000  0.0000  0.0000      0.0000  0.0000  0.0000  0.0000  0.0000  0.0000  0.0000  0.0000  0.0000  0.0000
  o =  0.2256  v =  0.0000  0.0000  0.0000  0.0000  0.0000  0.0000  1.0000  0.0000  0.0000  0.0000      0.0000  0.0000  0.0000  0.0000  0.0000  0.0000  0.0000  0.0000  0.0000  0.0000
  o =  0.2256  v =  0.0000  0.0000  0.0000  0.0000  0.0000  0.0000  0.0000  0.0000  1.0000  0.0000      0.0000  0.0000  0.0000  0.0000  0.0000  0.0000  0.0000  0.0000  0.0000  0.0000
  o =  0.2256  v =  0.0000  0.0000  0.0000  0.0000  0.0000  0.0000  0.0000  0.0000  0.0000  1.0000      0.0000  0.0000  0.0000  0.0000  0.0000  0.0000  0.0000  0.0000  0.0000  0.0000
  o =  0.8272  v =  0.0000  1.0000  0.0000  0.0000  0.0000  0.0000  0.0000  0.0000  0.0000  0.0000      0.0000  0.0000  0.0000  0.0000  0.0000  0.0000  0.0000  0.0000  0.0000  0.0000
  o =  0.8272  v =  0.0000  0.0000  1.0000  0.0000  0.0000  0.0000  0.0000  0.0000  0.0000  0.0000      0.0000  0.0000  0.0000  0.0000  0.0000  0.0000  0.0000  0.0000  0.0000  0.0000
  o =  0.8272  v =  1.0000  0.0000  0.0000  0.0000  0.0000  0.0000  0.0000  0.0000  0.0000  0.0000      0.0000  0.0000  0.0000  0.0000  0.0000  0.0000  0.0000  0.0000  0.0000  0.0000
  o =  0.8272  v =  0.0000  0.0000  0.0000  1.0000  0.0000  0.0000  0.0000  0.0000  0.0000  0.0000      0.0000  0.0000  0.0000  0.0000  0.0000  0.0000  0.0000  0.0000  0.0000  0.0000
  o =  0.8272  v =  0.0000  0.0000  0.0000  0.0000  1.0000  0.0000  0.0000  0.0000  0.0000  0.0000      0.0000  0.0000  0.0000  0.0000  0.0000  0.0000  0.0000  0.0000  0.0000  0.0000
atom =   8  type =  2  l = 2
 
 onsite density matrix
 
spin component  1
 
  0.8272  0.0000  0.0000  0.0000  0.0000
  0.0000  0.8272  0.0000  0.0000  0.0000
  0.0000  0.0000  0.8272  0.0000  0.0000
  0.0000  0.0000  0.0000  0.8272  0.0000
  0.0000  0.0000  0.0000  0.0000  0.8272
 
spin component  2
 
  0.2256  0.0000  0.0000  0.0000  0.0000
  0.0000  0.2256  0.0000  0.0000  0.0000
  0.0000  0.0000  0.2256  0.0000  0.0000
  0.0000  0.0000  0.0000  0.2256  0.0000
  0.0000  0.0000  0.0000  0.0000  0.2256
 
 occupancies and eigenvectors
 
  o =  0.2256  v =  0.0000  0.0000  0.0000  0.0000  0.0000  0.0000  0.0000  1.0000  0.0000  0.0000      0.0000  0.0000  0.0000  0.0000  0.0000  0.0000  0.0000  0.0000  0.0000  0.0000
  o =  0.2256  v =  0.0000  0.0000  0.0000  0.0000  0.0000  1.0000  0.0000  0.0000  0.0000  0.0000      0.0000  0.0000  0.0000  0.0000  0.0000  0.0000  0.0000  0.0000  0.0000  0.0000
  o =  0.2256  v =  0.0000  0.0000  0.0000  0.0000  0.0000  0.0000  1.0000  0.0000  0.0000  0.0000      0.0000  0.0000  0.0000  0.0000  0.0000  0.0000  0.0000  0.0000  0.0000  0.0000
  o =  0.2256  v =  0.0000  0.0000  0.0000  0.0000  0.0000  0.0000  0.0000  0.0000  1.0000  0.0000      0.0000  0.0000  0.0000  0.0000  0.0000  0.0000  0.0000  0.0000  0.0000  0.0000
  o =  0.2256  v =  0.0000  0.0000  0.0000  0.0000  0.0000  0.0000  0.0000  0.0000  0.0000  1.0000      0.0000  0.0000  0.0000  0.0000  0.0000  0.0000  0.0000  0.0000  0.0000  0.0000
  o =  0.8272  v =  0.0000  1.0000  0.0000  0.0000  0.0000  0.0000  0.0000  0.0000  0.0000  0.0000      0.0000  0.0000  0.0000  0.0000  0.0000  0.0000  0.0000  0.0000  0.0000  0.0000
  o =  0.8272  v =  0.0000  0.0000  1.0000  0.0000  0.0000  0.0000  0.0000  0.0000  0.0000  0.0000      0.0000  0.0000  0.0000  0.0000  0.0000  0.0000  0.0000  0.0000  0.0000  0.0000
  o =  0.8272  v =  1.0000  0.0000  0.0000  0.0000  0.0000  0.0000  0.0000  0.0000  0.0000  0.0000      0.0000  0.0000  0.0000  0.0000  0.0000  0.0000  0.0000  0.0000  0.0000  0.0000
  o =  0.8272  v =  0.0000  0.0000  0.0000  1.0000  0.0000  0.0000  0.0000  0.0000  0.0000  0.0000      0.0000  0.0000  0.0000  0.0000  0.0000  0.0000  0.0000  0.0000  0.0000  0.0000
  o =  0.8272  v =  0.0000  0.0000  0.0000  0.0000  1.0000  0.0000  0.0000  0.0000  0.0000  0.0000      0.0000  0.0000  0.0000  0.0000  0.0000  0.0000  0.0000  0.0000  0.0000  0.0000
atom =   9  type =  2  l = 2
 
 onsite density matrix
 
spin component  1
 
  0.8272  0.0000  0.0000  0.0000  0.0000
  0.0000  0.8272  0.0000  0.0000  0.0000
  0.0000  0.0000  0.8272  0.0000  0.0000
  0.0000  0.0000  0.0000  0.8272  0.0000
  0.0000  0.0000  0.0000  0.0000  0.8272
 
spin component  2
 
  0.2256  0.0000  0.0000  0.0000  0.0000
  0.0000  0.2256  0.0000  0.0000  0.0000
  0.0000  0.0000  0.2256  0.0000  0.0000
  0.0000  0.0000  0.0000  0.2256  0.0000
  0.0000  0.0000  0.0000  0.0000  0.2256
 
 occupancies and eigenvectors
 
  o =  0.2256  v =  0.0000  0.0000  0.0000  0.0000  0.0000  0.0000  0.0000  1.0000  0.0000  0.0000      0.0000  0.0000  0.0000  0.0000  0.0000  0.0000  0.0000  0.0000  0.0000  0.0000
  o =  0.2256  v =  0.0000  0.0000  0.0000  0.0000  0.0000  1.0000  0.0000  0.0000  0.0000  0.0000      0.0000  0.0000  0.0000  0.0000  0.0000  0.0000  0.0000  0.0000  0.0000  0.0000
  o =  0.2256  v =  0.0000  0.0000  0.0000  0.0000  0.0000  0.0000  1.0000  0.0000  0.0000  0.0000      0.0000  0.0000  0.0000  0.0000  0.0000  0.0000  0.0000  0.0000  0.0000  0.0000
  o =  0.2256  v =  0.0000  0.0000  0.0000  0.0000  0.0000  0.0000  0.0000  0.0000  1.0000  0.0000      0.0000  0.0000  0.0000  0.0000  0.0000  0.0000  0.0000  0.0000  0.0000  0.0000
  o =  0.2256  v =  0.0000  0.0000  0.0000  0.0000  0.0000  0.0000  0.0000  0.0000  0.0000  1.0000      0.0000  0.0000  0.0000  0.0000  0.0000  0.0000  0.0000  0.0000  0.0000  0.0000
  o =  0.8272  v =  0.0000  1.0000  0.0000  0.0000  0.0000  0.0000  0.0000  0.0000  0.0000  0.0000      0.0000  0.0000  0.0000  0.0000  0.0000  0.0000  0.0000  0.0000  0.0000  0.0000
  o =  0.8272  v =  0.0000  0.0000  1.0000  0.0000  0.0000  0.0000  0.0000  0.0000  0.0000  0.0000      0.0000  0.0000  0.0000  0.0000  0.0000  0.0000  0.0000  0.0000  0.0000  0.0000
  o =  0.8272  v =  1.0000  0.0000  0.0000  0.0000  0.0000  0.0000  0.0000  0.0000  0.0000  0.0000      0.0000  0.0000  0.0000  0.0000  0.0000  0.0000  0.0000  0.0000  0.0000  0.0000
  o =  0.8272  v =  0.0000  0.0000  0.0000  1.0000  0.0000  0.0000  0.0000  0.0000  0.0000  0.0000      0.0000  0.0000  0.0000  0.0000  0.0000  0.0000  0.0000  0.0000  0.0000  0.0000
  o =  0.8272  v =  0.0000  0.0000  0.0000  0.0000  1.0000  0.0000  0.0000  0.0000  0.0000  0.0000      0.0000  0.0000  0.0000  0.0000  0.0000  0.0000  0.0000  0.0000  0.0000  0.0000
atom =  10  type =  2  l = 2
 
 onsite density matrix
 
spin component  1
 
  0.8272  0.0000  0.0000  0.0000  0.0000
  0.0000  0.8272  0.0000  0.0000  0.0000
  0.0000  0.0000  0.8272  0.0000  0.0000
  0.0000  0.0000  0.0000  0.8272  0.0000
  0.0000  0.0000  0.0000  0.0000  0.8272
 
spin component  2
 
  0.2256  0.0000  0.0000  0.0000  0.0000
  0.0000  0.2256  0.0000  0.0000  0.0000
  0.0000  0.0000  0.2256  0.0000  0.0000
  0.0000  0.0000  0.0000  0.2256  0.0000
  0.0000  0.0000  0.0000  0.0000  0.2256
 
 occupancies and eigenvectors
 
  o =  0.2256  v =  0.0000  0.0000  0.0000  0.0000  0.0000  0.0000  0.0000  1.0000  0.0000  0.0000      0.0000  0.0000  0.0000  0.0000  0.0000  0.0000  0.0000  0.0000  0.0000  0.0000
  o =  0.2256  v =  0.0000  0.0000  0.0000  0.0000  0.0000  1.0000  0.0000  0.0000  0.0000  0.0000      0.0000  0.0000  0.0000  0.0000  0.0000  0.0000  0.0000  0.0000  0.0000  0.0000
  o =  0.2256  v =  0.0000  0.0000  0.0000  0.0000  0.0000  0.0000  1.0000  0.0000  0.0000  0.0000      0.0000  0.0000  0.0000  0.0000  0.0000  0.0000  0.0000  0.0000  0.0000  0.0000
  o =  0.2256  v =  0.0000  0.0000  0.0000  0.0000  0.0000  0.0000  0.0000  0.0000  1.0000  0.0000      0.0000  0.0000  0.0000  0.0000  0.0000  0.0000  0.0000  0.0000  0.0000  0.0000
  o =  0.2256  v =  0.0000  0.0000  0.0000  0.0000  0.0000  0.0000  0.0000  0.0000  0.0000  1.0000      0.0000  0.0000  0.0000  0.0000  0.0000  0.0000  0.0000  0.0000  0.0000  0.0000
  o =  0.8272  v =  0.0000  1.0000  0.0000  0.0000  0.0000  0.0000  0.0000  0.0000  0.0000  0.0000      0.0000  0.0000  0.0000  0.0000  0.0000  0.0000  0.0000  0.0000  0.0000  0.0000
  o =  0.8272  v =  0.0000  0.0000  1.0000  0.0000  0.0000  0.0000  0.0000  0.0000  0.0000  0.0000      0.0000  0.0000  0.0000  0.0000  0.0000  0.0000  0.0000  0.0000  0.0000  0.0000
  o =  0.8272  v =  1.0000  0.0000  0.0000  0.0000  0.0000  0.0000  0.0000  0.0000  0.0000  0.0000      0.0000  0.0000  0.0000  0.0000  0.0000  0.0000  0.0000  0.0000  0.0000  0.0000
  o =  0.8272  v =  0.0000  0.0000  0.0000  1.0000  0.0000  0.0000  0.0000  0.0000  0.0000  0.0000      0.0000  0.0000  0.0000  0.0000  0.0000  0.0000  0.0000  0.0000  0.0000  0.0000
  o =  0.8272  v =  0.0000  0.0000  0.0000  0.0000  1.0000  0.0000  0.0000  0.0000  0.0000  0.0000      0.0000  0.0000  0.0000  0.0000  0.0000  0.0000  0.0000  0.0000  0.0000  0.0000
atom =  11  type =  2  l = 2
 
 onsite density matrix
 
spin component  1
 
  0.8272  0.0000  0.0000  0.0000  0.0000
  0.0000  0.8272  0.0000  0.0000  0.0000
  0.0000  0.0000  0.8272  0.0000  0.0000
  0.0000  0.0000  0.0000  0.8272  0.0000
  0.0000  0.0000  0.0000  0.0000  0.8272
 
spin component  2
 
  0.2256  0.0000  0.0000  0.0000  0.0000
  0.0000  0.2256  0.0000  0.0000  0.0000
  0.0000  0.0000  0.2256  0.0000  0.0000
  0.0000  0.0000  0.0000  0.2256  0.0000
  0.0000  0.0000  0.0000  0.0000  0.2256
 
 occupancies and eigenvectors
 
  o =  0.2256  v =  0.0000  0.0000  0.0000  0.0000  0.0000  0.0000  0.0000  1.0000  0.0000  0.0000      0.0000  0.0000  0.0000  0.0000  0.0000  0.0000  0.0000  0.0000  0.0000  0.0000
  o =  0.2256  v =  0.0000  0.0000  0.0000  0.0000  0.0000  1.0000  0.0000  0.0000  0.0000  0.0000      0.0000  0.0000  0.0000  0.0000  0.0000  0.0000  0.0000  0.0000  0.0000  0.0000
  o =  0.2256  v =  0.0000  0.0000  0.0000  0.0000  0.0000  0.0000  1.0000  0.0000  0.0000  0.0000      0.0000  0.0000  0.0000  0.0000  0.0000  0.0000  0.0000  0.0000  0.0000  0.0000
  o =  0.2256  v =  0.0000  0.0000  0.0000  0.0000  0.0000  0.0000  0.0000  0.0000  1.0000  0.0000      0.0000  0.0000  0.0000  0.0000  0.0000  0.0000  0.0000  0.0000  0.0000  0.0000
  o =  0.2256  v =  0.0000  0.0000  0.0000  0.0000  0.0000  0.0000  0.0000  0.0000  0.0000  1.0000      0.0000  0.0000  0.0000  0.0000  0.0000  0.0000  0.0000  0.0000  0.0000  0.0000
  o =  0.8272  v =  0.0000  1.0000  0.0000  0.0000  0.0000  0.0000  0.0000  0.0000  0.0000  0.0000      0.0000  0.0000  0.0000  0.0000  0.0000  0.0000  0.0000  0.0000  0.0000  0.0000
  o =  0.8272  v =  0.0000  0.0000  1.0000  0.0000  0.0000  0.0000  0.0000  0.0000  0.0000  0.0000      0.0000  0.0000  0.0000  0.0000  0.0000  0.0000  0.0000  0.0000  0.0000  0.0000
  o =  0.8272  v =  1.0000  0.0000  0.0000  0.0000  0.0000  0.0000  0.0000  0.0000  0.0000  0.0000      0.0000  0.0000  0.0000  0.0000  0.0000  0.0000  0.0000  0.0000  0.0000  0.0000
  o =  0.8272  v =  0.0000  0.0000  0.0000  1.0000  0.0000  0.0000  0.0000  0.0000  0.0000  0.0000      0.0000  0.0000  0.0000  0.0000  0.0000  0.0000  0.0000  0.0000  0.0000  0.0000
  o =  0.8272  v =  0.0000  0.0000  0.0000  0.0000  1.0000  0.0000  0.0000  0.0000  0.0000  0.0000      0.0000  0.0000  0.0000  0.0000  0.0000  0.0000  0.0000  0.0000  0.0000  0.0000
atom =  12  type =  3  l = 2
 
 onsite density matrix
 
spin component  1
 
  1.1008  0.0000  0.0000  0.0000  0.0000
  0.0000  1.1008  0.0000  0.0000  0.0000
  0.0000  0.0000  1.1008  0.0000  0.0000
  0.0000  0.0000  0.0000  1.1008  0.0000
  0.0000  0.0000  0.0000  0.0000  1.1008
 
spin component  2
 
  0.5927  0.0000  0.0000  0.0000  0.0000
  0.0000  0.5927  0.0000  0.0000  0.0000
  0.0000  0.0000  0.5927  0.0000  0.0000
  0.0000  0.0000  0.0000  0.5927  0.0000
  0.0000  0.0000  0.0000  0.0000  0.5927
 
 occupancies and eigenvectors
 
  o =  0.5927  v =  0.0000  0.0000  0.0000  0.0000  0.0000  1.0000  0.0000  0.0000  0.0000  0.0000      0.0000  0.0000  0.0000  0.0000  0.0000  0.0000  0.0000  0.0000  0.0000  0.0000
  o =  0.5927  v =  0.0000  0.0000  0.0000  0.0000  0.0000  0.0000  1.0000  0.0000  0.0000  0.0000      0.0000  0.0000  0.0000  0.0000  0.0000  0.0000  0.0000  0.0000  0.0000  0.0000
  o =  0.5927  v =  0.0000  0.0000  0.0000  0.0000  0.0000  0.0000  0.0000  1.0000  0.0000  0.0000      0.0000  0.0000  0.0000  0.0000  0.0000  0.0000  0.0000  0.0000  0.0000  0.0000
  o =  0.5927  v =  0.0000  0.0000  0.0000  0.0000  0.0000  0.0000  0.0000  0.0000  1.0000  0.0000      0.0000  0.0000  0.0000  0.0000  0.0000  0.0000  0.0000  0.0000  0.0000  0.0000
  o =  0.5927  v =  0.0000  0.0000  0.0000  0.0000  0.0000  0.0000  0.0000  0.0000  0.0000  1.0000      0.0000  0.0000  0.0000  0.0000  0.0000  0.0000  0.0000  0.0000  0.0000  0.0000
  o =  1.1008  v =  1.0000  0.0000  0.0000  0.0000  0.0000  0.0000  0.0000  0.0000  0.0000  0.0000      0.0000  0.0000  0.0000  0.0000  0.0000  0.0000  0.0000  0.0000  0.0000  0.0000
  o =  1.1008  v =  0.0000  1.0000  0.0000  0.0000  0.0000  0.0000  0.0000  0.0000  0.0000  0.0000      0.0000  0.0000  0.0000  0.0000  0.0000  0.0000  0.0000  0.0000  0.0000  0.0000
  o =  1.1008  v =  0.0000  0.0000  1.0000  0.0000  0.0000  0.0000  0.0000  0.0000  0.0000  0.0000      0.0000  0.0000  0.0000  0.0000  0.0000  0.0000  0.0000  0.0000  0.0000  0.0000
  o =  1.1008  v =  0.0000  0.0000  0.0000  1.0000  0.0000  0.0000  0.0000  0.0000  0.0000  0.0000      0.0000  0.0000  0.0000  0.0000  0.0000  0.0000  0.0000  0.0000  0.0000  0.0000
  o =  1.1008  v =  0.0000  0.0000  0.0000  0.0000  1.0000  0.0000  0.0000  0.0000  0.0000  0.0000      0.0000  0.0000  0.0000  0.0000  0.0000  0.0000  0.0000  0.0000  0.0000  0.0000
atom =  13  type =  4  l = 0
 
 onsite density matrix
 
spin component  1
 
  0.8190
 
spin component  2
 
  0.8190
 
 occupancies and eigenvectors
 
  o =  0.8190  v =  1.0000  0.0000      0.0000  0.0000
  o =  0.8190  v =  0.0000  1.0000      0.0000  0.0000
atom =  14  type =  4  l = 0
 
 onsite density matrix
 
spin component  1
 
  0.8190
 
spin component  2
 
  0.8190
 
 occupancies and eigenvectors
 
  o =  0.8190  v =  1.0000  0.0000      0.0000  0.0000
  o =  0.8190  v =  0.0000  1.0000      0.0000  0.0000
atom =  15  type =  4  l = 0
 
 onsite density matrix
 
spin component  1
 
  0.8190
 
spin component  2
 
  0.8190
 
 occupancies and eigenvectors
 
  o =  0.8190  v =  1.0000  0.0000      0.0000  0.0000
  o =  0.8190  v =  0.0000  1.0000      0.0000  0.0000
atom =  16  type =  4  l = 0
 
 onsite density matrix
 
spin component  1
 
  0.8190
 
spin component  2
 
  0.8190
 
 occupancies and eigenvectors
 
  o =  0.8190  v =  1.0000  0.0000      0.0000  0.0000
  o =  0.8190  v =  0.0000  1.0000      0.0000  0.0000
atom =  17  type =  4  l = 0
 
 onsite density matrix
 
spin component  1
 
  0.8190
 
spin component  2
 
  0.8190
 
 occupancies and eigenvectors
 
  o =  0.8190  v =  1.0000  0.0000      0.0000  0.0000
  o =  0.8190  v =  0.0000  1.0000      0.0000  0.0000
atom =  18  type =  4  l = 0
 
 onsite density matrix
 
spin component  1
 
  0.8190
 
spin component  2
 
  0.8190
 
 occupancies and eigenvectors
 
  o =  0.8190  v =  1.0000  0.0000      0.0000  0.0000
  o =  0.8190  v =  0.0000  1.0000      0.0000  0.0000
atom =  19  type =  4  l = 0
 
 onsite density matrix
 
spin component  1
 
  0.8190
 
spin component  2
 
  0.8190
 
 occupancies and eigenvectors
 
  o =  0.8190  v =  1.0000  0.0000      0.0000  0.0000
  o =  0.8190  v =  0.0000  1.0000      0.0000  0.0000
atom =  20  type =  4  l = 0
 
 onsite density matrix
 
spin component  1
 
  0.8190
 
spin component  2
 
  0.8190
 
 occupancies and eigenvectors
 
  o =  0.8190  v =  1.0000  0.0000      0.0000  0.0000
  o =  0.8190  v =  0.0000  1.0000      0.0000  0.0000
atom =  21  type =  4  l = 0
 
 onsite density matrix
 
spin component  1
 
  0.8190
 
spin component  2
 
  0.8190
 
 occupancies and eigenvectors
 
  o =  0.8190  v =  1.0000  0.0000      0.0000  0.0000
  o =  0.8190  v =  0.0000  1.0000      0.0000  0.0000
atom =  22  type =  4  l = 0
 
 onsite density matrix
 
spin component  1
 
  0.8190
 
spin component  2
 
  0.8190
 
 occupancies and eigenvectors
 
  o =  0.8190  v =  1.0000  0.0000      0.0000  0.0000
  o =  0.8190  v =  0.0000  1.0000      0.0000  0.0000
atom =  23  type =  4  l = 0
 
 onsite density matrix
 
spin component  1
 
  0.8190
 
spin component  2
 
  0.8190
 
 occupancies and eigenvectors
 
  o =  0.8190  v =  1.0000  0.0000      0.0000  0.0000
  o =  0.8190  v =  0.0000  1.0000      0.0000  0.0000
atom =  24  type =  4  l = 0
 
 onsite density matrix
 
spin component  1
 
  0.8190
 
spin component  2
 
  0.8190
 
 occupancies and eigenvectors
 
  o =  0.8190  v =  1.0000  0.0000      0.0000  0.0000
  o =  0.8190  v =  0.0000  1.0000      0.0000  0.0000
atom =  25  type =  4  l = 0
 
 onsite density matrix
 
spin component  1
 
  0.8190
 
spin component  2
 
  0.8190
 
 occupancies and eigenvectors
 
  o =  0.8190  v =  1.0000  0.0000      0.0000  0.0000
  o =  0.8190  v =  0.0000  1.0000      0.0000  0.0000
atom =  26  type =  4  l = 0
 
 onsite density matrix
 
spin component  1
 
  0.8190
 
spin component  2
 
  0.8190
 
 occupancies and eigenvectors
 
  o =  0.8190  v =  1.0000  0.0000      0.0000  0.0000
  o =  0.8190  v =  0.0000  1.0000      0.0000  0.0000
atom =  27  type =  4  l = 0
 
 onsite density matrix
 
spin component  1
 
  0.8190
 
spin component  2
 
  0.8190
 
 occupancies and eigenvectors
 
  o =  0.8190  v =  1.0000  0.0000      0.0000  0.0000
  o =  0.8190  v =  0.0000  1.0000      0.0000  0.0000
atom =  28  type =  4  l = 0
 
 onsite density matrix
 
spin component  1
 
  0.8190
 
spin component  2
 
  0.8190
 
 occupancies and eigenvectors
 
  o =  0.8190  v =  1.0000  0.0000      0.0000  0.0000
  o =  0.8190  v =  0.0000  1.0000      0.0000  0.0000
atom =  29  type =  4  l = 0
 
 onsite density matrix
 
spin component  1
 
  0.8190
 
spin component  2
 
  0.8190
 
 occupancies and eigenvectors
 
  o =  0.8190  v =  1.0000  0.0000      0.0000  0.0000
  o =  0.8190  v =  0.0000  1.0000      0.0000  0.0000
atom =  30  type =  4  l = 0
 
 onsite density matrix
 
spin component  1
 
  0.8190
 
spin component  2
 
  0.8190
 
 occupancies and eigenvectors
 
  o =  0.8190  v =  1.0000  0.0000      0.0000  0.0000
  o =  0.8190  v =  0.0000  1.0000      0.0000  0.0000
     EDDAV:  cpu time    4.3858: real time    4.4029
 BZINTS: Fermi energy: 30.605631;219.000000 electrons
         Band energy:3219.137217;  BLOECHL correction: -0.191649
       DOS:  cpu time    0.0276: real time    0.0296
    --------------------------------------------
      LOOP:  cpu time    4.5178: real time    4.5390

 eigenvalue-minimisations  :  7472
 total energy-change (2. order) : 0.3530954E+04  (-0.7580005E+04)
 number of electron     219.0000000 magnetization      23.0000000
 augmentation part      219.0000000 magnetization      23.0000000

 Free energy of the ion-electron system (eV)
  ---------------------------------------------------
  alpha Z        PSCENC =       961.30224754
  Ewald energy   TEWEN  =    -14560.39394745
  -Hartree energ DENC   =     -2934.64712597
  -exchange      EXHF   =         0.00000000
  -V(xc)+E(xc)   XCENC  =       666.68472577
  PAW double counting   =     13087.43818639   -13048.29315604
  entropy T*S    EENTRO =         0.00000000
  eigenvalues    EBANDS =      3219.13721652
  atomic energy  EATOM  =     16139.72541369
  Solvation  Ediel_sol  =         0.00000000
  ---------------------------------------------------
  free energy    TOTEN  =      3530.95356045 eV

  energy without entropy =     3530.95356045  energy(sigma->0) =     3530.95356045


--------------------------------------------------------------------------------------------------------




--------------------------------------- Iteration      1(   2)  ---------------------------------------


     EDDAV:  cpu time    4.5167: real time    4.5351
 BZINTS: Fermi energy: 16.152098;219.000000 electrons
         Band energy: 912.047422;  BLOECHL correction: -0.048597
       DOS:  cpu time    0.0269: real time    0.0269
    --------------------------------------------
      LOOP:  cpu time    4.5436: real time    4.5620

 eigenvalue-minimisations  :  7744
 total energy-change (2. order) :-0.2307090E+04  (-0.2068830E+04)
 number of electron     219.0000000 magnetization      23.0000000
 augmentation part      219.0000000 magnetization      23.0000000

 Free energy of the ion-electron system (eV)
  ---------------------------------------------------
  alpha Z        PSCENC =       961.30224754
  Ewald energy   TEWEN  =    -14560.39394745
  -Hartree energ DENC   =     -2934.64712597
  -exchange      EXHF   =         0.00000000
  -V(xc)+E(xc)   XCENC  =       666.68472577
  PAW double counting   =     13087.43818639   -13048.29315604
  entropy T*S    EENTRO =         0.00000000
  eigenvalues    EBANDS =       912.04742238
  atomic energy  EATOM  =     16139.72541369
  Solvation  Ediel_sol  =         0.00000000
  ---------------------------------------------------
  free energy    TOTEN  =      1223.86376631 eV

  energy without entropy =     1223.86376631  energy(sigma->0) =     1223.86376631


--------------------------------------------------------------------------------------------------------




--------------------------------------- Iteration      1(   3)  ---------------------------------------


     EDDAV:  cpu time    4.7008: real time    4.7237
 BZINTS: Fermi energy: 11.838003;219.000000 electrons
         Band energy: -59.442499;  BLOECHL correction: -0.018306
       DOS:  cpu time    0.0277: real time    0.0278
    --------------------------------------------
      LOOP:  cpu time    4.7285: real time    4.7514

 eigenvalue-minimisations  :  8200
 total energy-change (2. order) :-0.9714899E+03  (-0.8762354E+03)
 number of electron     219.0000000 magnetization      23.0000000
 augmentation part      219.0000000 magnetization      23.0000000

 Free energy of the ion-electron system (eV)
  ---------------------------------------------------
  alpha Z        PSCENC =       961.30224754
  Ewald energy   TEWEN  =    -14560.39394745
  -Hartree energ DENC   =     -2934.64712597
  -exchange      EXHF   =         0.00000000
  -V(xc)+E(xc)   XCENC  =       666.68472577
  PAW double counting   =     13087.43818639   -13048.29315604
  entropy T*S    EENTRO =         0.00000000
  eigenvalues    EBANDS =       -59.44249885
  atomic energy  EATOM  =     16139.72541369
  Solvation  Ediel_sol  =         0.00000000
  ---------------------------------------------------
  free energy    TOTEN  =       252.37384508 eV

  energy without entropy =      252.37384508  energy(sigma->0) =      252.37384508


--------------------------------------------------------------------------------------------------------




--------------------------------------- Iteration      1(   4)  ---------------------------------------


     EDDAV:  cpu time    6.0604: real time    6.0839
 BZINTS: Fermi energy: 11.052801;219.000000 electrons
         Band energy:-481.482366;  BLOECHL correction: -0.012571
       DOS:  cpu time    0.0295: real time    0.0296
    --------------------------------------------
      LOOP:  cpu time    6.0900: real time    6.1134

 eigenvalue-minimisations  : 11120
 total energy-change (2. order) :-0.4220399E+03  (-0.3947986E+03)
 number of electron     219.0000000 magnetization      23.0000000
 augmentation part      219.0000000 magnetization      23.0000000

 Free energy of the ion-electron system (eV)
  ---------------------------------------------------
  alpha Z        PSCENC =       961.30224754
  Ewald energy   TEWEN  =    -14560.39394745
  -Hartree energ DENC   =     -2934.64712597
  -exchange      EXHF   =         0.00000000
  -V(xc)+E(xc)   XCENC  =       666.68472577
  PAW double counting   =     13087.43818639   -13048.29315604
  entropy T*S    EENTRO =         0.00000000
  eigenvalues    EBANDS =      -481.48236615
  atomic energy  EATOM  =     16139.72541369
  Solvation  Ediel_sol  =         0.00000000
  ---------------------------------------------------
  free energy    TOTEN  =      -169.66602222 eV

  energy without entropy =     -169.66602222  energy(sigma->0) =     -169.66602222


--------------------------------------------------------------------------------------------------------




--------------------------------------- Iteration      1(   5)  ---------------------------------------


     EDDAV:  cpu time    6.5930: real time    6.6166
 BZINTS: Fermi energy: 10.730859;219.000000 electrons
         Band energy:-573.237928;  BLOECHL correction: -0.074753
       DOS:  cpu time    0.0280: real time    0.0281
    CHARGE:  cpu time    0.1880: real time    0.1886
    MIXING:  cpu time    0.0035: real time    0.0036
    --------------------------------------------
      LOOP:  cpu time    6.8125: real time    6.8369

 eigenvalue-minimisations  : 12304
 total energy-change (2. order) :-0.9175556E+02  (-0.8872891E+02)
 number of electron     219.0000029 magnetization      21.5099256
 augmentation part       23.4017769 magnetization      14.4193546

 Broyden mixing:
  rms(total) = 0.68177E+01    rms(broyden)= 0.68172E+01
  rms(prec ) = 0.79146E+01
  weight for this iteration     100.00

 Free energy of the ion-electron system (eV)
  ---------------------------------------------------
  alpha Z        PSCENC =       961.30224754
  Ewald energy   TEWEN  =    -14560.39394745
  -Hartree energ DENC   =     -2934.64712597
  -exchange      EXHF   =         0.00000000
  -V(xc)+E(xc)   XCENC  =       666.68472577
  PAW double counting   =     13087.43818639   -13048.29315604
  entropy T*S    EENTRO =         0.00000000
  eigenvalues    EBANDS =      -573.23792818
  atomic energy  EATOM  =     16139.72541369
  Solvation  Ediel_sol  =         0.00000000
  ---------------------------------------------------
  free energy    TOTEN  =      -261.42158425 eV

  energy without entropy =     -261.42158425  energy(sigma->0) =     -261.42158425


--------------------------------------------------------------------------------------------------------




--------------------------------------- Iteration      1(   6)  ---------------------------------------


    POTLOK:  cpu time    0.0873: real time    0.0886
    SETDIJ:  cpu time    0.0133: real time    0.0133
atom =   1  type =  1  l = 0
 
 onsite density matrix
 
spin component  1
 
  1.0568
 
spin component  2
 
  1.0565
 
 occupancies and eigenvectors
 
  o =  1.0565  v =  0.0000  1.0000      0.0000  0.0000
  o =  1.0568  v =  1.0000  0.0000      0.0000  0.0000
atom =   2  type =  1  l = 0
 
 onsite density matrix
 
spin component  1
 
  1.0561
 
spin component  2
 
  1.0558
 
 occupancies and eigenvectors
 
  o =  1.0558  v =  0.0000  1.0000      0.0000  0.0000
  o =  1.0561  v =  1.0000  0.0000      0.0000  0.0000
atom =   3  type =  1  l = 0
 
 onsite density matrix
 
spin component  1
 
  1.0559
 
spin component  2
 
  1.0560
 
 occupancies and eigenvectors
 
  o =  1.0559  v =  1.0000  0.0000      0.0000  0.0000
  o =  1.0560  v =  0.0000  1.0000      0.0000  0.0000
atom =   4  type =  1  l = 0
 
 onsite density matrix
 
spin component  1
 
  1.0559
 
spin component  2
 
  1.0560
 
 occupancies and eigenvectors
 
  o =  1.0559  v =  1.0000  0.0000      0.0000  0.0000
  o =  1.0560  v =  0.0000  1.0000      0.0000  0.0000
atom =   5  type =  1  l = 0
 
 onsite density matrix
 
spin component  1
 
  1.0561
 
spin component  2
 
  1.0558
 
 occupancies and eigenvectors
 
  o =  1.0558  v =  0.0000  1.0000      0.0000  0.0000
  o =  1.0561  v =  1.0000  0.0000      0.0000  0.0000
atom =   6  type =  1  l = 0
 
 onsite density matrix
 
spin component  1
 
  1.0568
 
spin component  2
 
  1.0565
 
 occupancies and eigenvectors
 
  o =  1.0565  v =  0.0000  1.0000      0.0000  0.0000
  o =  1.0568  v =  1.0000  0.0000      0.0000  0.0000
atom =   7  type =  2  l = 2
 
 onsite density matrix
 
spin component  1
 
  0.9467  0.0000  0.0000  0.0045  0.0000
  0.0000  0.9453  0.0061  0.0000 -0.0008
  0.0000  0.0061  0.4573  0.0000 -0.0189
  0.0045  0.0000  0.0000  0.9566  0.0000
  0.0000 -0.0008 -0.0189  0.0000  0.4130
 
spin component  2
 
  0.0334  0.0000  0.0000 -0.0032  0.0000
  0.0000  0.0335 -0.0036  0.0000  0.0005
  0.0000 -0.0036  0.3718  0.0000  0.0109
 -0.0032  0.0000  0.0000  0.0236  0.0000
  0.0000  0.0005  0.0109  0.0000  0.4013
 
 occupancies and eigenvectors
 
  o =  0.0227  v =  0.0000  0.0000  0.0000  0.0000  0.0000 -0.2820  0.0000  0.0000 -0.9594  0.0000      0.0000  0.0000  0.0000  0.0000  0.0000  0.0000  0.0000  0.0000  0.0000  0.0000
  o =  0.0335  v =  0.0000  0.0000  0.0000  0.0000  0.0000  0.0000  0.9999  0.0107  0.0000 -0.0018      0.0000  0.0000  0.0000  0.0000  0.0000  0.0000  0.0000  0.0000  0.0000  0.0000
  o =  0.0343  v =  0.0000  0.0000  0.0000  0.0000  0.0000 -0.9594  0.0000  0.0000  0.2820  0.0000      0.0000  0.0000  0.0000  0.0000  0.0000  0.0000  0.0000  0.0000  0.0000  0.0000
  o =  0.3683  v =  0.0000  0.0000  0.0000  0.0000  0.0000  0.0000  0.0108 -0.9496  0.0000  0.3132      0.0000  0.0000  0.0000  0.0000  0.0000  0.0000  0.0000  0.0000  0.0000  0.0000
  o =  0.4049  v =  0.0000  0.0000  0.0000  0.0000  0.0000  0.0000 -0.0017  0.3132  0.0000  0.9497      0.0000  0.0000  0.0000  0.0000  0.0000  0.0000  0.0000  0.0000  0.0000  0.0000
  o =  0.4060  v =  0.0000 -0.0026  0.3462 -0.0000  0.9382  0.0000  0.0000  0.0000  0.0000  0.0000      0.0000  0.0000  0.0000  0.0000  0.0000  0.0000  0.0000  0.0000  0.0000  0.0000
  o =  0.4642  v = -0.0000  0.0124 -0.9381  0.0000  0.3462  0.0000  0.0000  0.0000  0.0000  0.0000      0.0000  0.0000  0.0000  0.0000  0.0000  0.0000  0.0000  0.0000  0.0000  0.0000
  o =  0.9450  v = -0.9336  0.0000  0.0000  0.3583 -0.0000  0.0000  0.0000  0.0000  0.0000  0.0000      0.0000  0.0000  0.0000  0.0000  0.0000  0.0000  0.0000  0.0000  0.0000  0.0000
  o =  0.9454  v = -0.0000 -0.9999 -0.0125  0.0000  0.0019  0.0000  0.0000  0.0000  0.0000  0.0000      0.0000  0.0000  0.0000  0.0000  0.0000  0.0000  0.0000  0.0000  0.0000  0.0000
  o =  0.9584  v = -0.3583  0.0000  0.0000 -0.9336 -0.0000  0.0000  0.0000  0.0000  0.0000  0.0000      0.0000  0.0000  0.0000  0.0000  0.0000  0.0000  0.0000  0.0000  0.0000  0.0000
atom =   8  type =  2  l = 2
 
 onsite density matrix
 
spin component  1
 
  0.9528  0.0000  0.0000  0.0012  0.0000
  0.0000  0.9415  0.0026  0.0000  0.0007
  0.0000  0.0026  0.4274  0.0000  0.0036
  0.0012  0.0000  0.0000  0.9460  0.0000
  0.0000  0.0007  0.0036  0.0000  0.4755
 
spin component  2
 
  0.0270  0.0000  0.0000 -0.0014  0.0000
  0.0000  0.0368 -0.0016  0.0000 -0.0000
  0.0000 -0.0016  0.3962  0.0000 -0.0030
 -0.0014  0.0000  0.0000  0.0343  0.0000
  0.0000 -0.0000 -0.0030  0.0000  0.3631
 
 occupancies and eigenvectors
 
  o =  0.0268  v =  0.0000  0.0000  0.0000  0.0000  0.0000 -0.9837  0.0000  0.0000 -0.1797  0.0000      0.0000  0.0000  0.0000  0.0000  0.0000  0.0000  0.0000  0.0000  0.0000  0.0000
  o =  0.0346  v =  0.0000  0.0000  0.0000  0.0000  0.0000 -0.1797  0.0000  0.0000  0.9837  0.0000      0.0000  0.0000  0.0000  0.0000  0.0000  0.0000  0.0000  0.0000  0.0000  0.0000
  o =  0.0368  v =  0.0000  0.0000  0.0000  0.0000  0.0000  0.0000 -1.0000 -0.0046  0.0000 -0.0002      0.0000  0.0000  0.0000  0.0000  0.0000  0.0000  0.0000  0.0000  0.0000  0.0000
[...]
 -0.000  -0.001   0.000  -0.001   0.000   0.000  -0.001   0.000   0.000  -0.001  -0.001   0.000   0.000   0.000   0.000   0.000
  0.000   0.000   0.000   0.000   0.000   0.000   0.000   0.000   0.001   0.000   0.000  -0.000   0.000  -0.000   0.000   0.000
  0.000   0.001  -0.000  -0.000   0.000  -0.000  -0.000   0.000   0.000   0.001   0.000   0.000  -0.002   0.000  -0.000  -0.000
  0.000   0.000   0.000   0.000  -0.001   0.000   0.000  -0.000  -0.000   0.000   0.000  -0.001   0.000  -0.000   0.000   0.000
 -0.000  -0.002   0.000   0.000   0.000  -0.001   0.000   0.000   0.000  -0.003  -0.001   0.000   0.002   0.000   0.001   0.000
  0.000   0.000   0.000   0.000  -0.000   0.000   0.000   0.001  -0.003   0.000   0.000  -0.003   0.000   0.001   0.000   0.000
 -0.000  -0.000   0.000  -0.000   0.000  -0.001  -0.000   0.000   0.000  -0.000   0.003   0.000  -0.000   0.000  -0.000  -0.001
  0.000   0.001   0.000   0.000   0.000  -0.000   0.001   0.000   0.000   0.002   0.002   0.000  -0.000   0.000  -0.001  -0.000
  0.000   0.000   0.000   0.000  -0.000   0.000   0.000  -0.001  -0.002   0.000   0.000  -0.000   0.000   0.001   0.000   0.000
 -0.000  -0.001   0.000   0.000   0.000   0.000   0.000   0.000   0.000  -0.001   0.000   0.000   0.004   0.000   0.000   0.000
  0.000   0.000   0.000   0.000   0.000   0.000   0.000   0.001   0.001   0.000   0.000   0.003   0.000  -0.000   0.000   0.000


------------------------ aborting loop because EDIFF is reached ----------------------------------------


 


 total charge     
 
# of ion       s       p       d       f       tot
--------------------------------------------------
    1        1.999   5.694   0.475   0.184   8.351
    2        1.999   5.694   0.476   0.184   8.352
    3        1.998   5.696   0.475   0.184   8.354
    4        1.998   5.696   0.475   0.184   8.354
    5        1.999   5.694   0.476   0.184   8.352
    6        1.999   5.694   0.475   0.184   8.352
    7        0.311   0.465   4.894   0.000   5.669
    8        0.320   0.484   4.884   0.000   5.688
    9        0.317   0.479   4.881   0.000   5.677
   10        0.311   0.465   4.894   0.000   5.669
   11        0.320   0.484   4.884   0.000   5.688
   12        0.396   0.570   8.332   0.000   9.298
   13        1.560   3.457   0.000   0.000   5.016
   14        1.564   3.454   0.000   0.000   5.018
   15        1.564   3.451   0.000   0.000   5.016
   16        1.564   3.451   0.000   0.000   5.016
   17        1.564   3.454   0.000   0.000   5.018
   18        1.560   3.457   0.000   0.000   5.016
   19        1.564   3.452   0.000   0.000   5.016
   20        1.563   3.455   0.000   0.000   5.018
   21        1.564   3.452   0.000   0.000   5.016
   22        1.560   3.454   0.000   0.000   5.013
   23        1.566   3.446   0.000   0.000   5.012
   24        1.560   3.454   0.000   0.000   5.013
   25        1.564   3.454   0.000   0.000   5.018
   26        1.563   3.455   0.000   0.000   5.019
   27        1.563   3.451   0.000   0.000   5.014
   28        1.563   3.455   0.000   0.000   5.019
   29        1.564   3.454   0.000   0.000   5.018
   30        1.555   3.461   0.000   0.000   5.017
--------------------------------------------------
tot         42.090  99.282  35.622   1.103 178.098

 


 magnetization (x)
 
# of ion       s       p       d       f       tot
--------------------------------------------------
    1        0.001   0.000   0.009   0.006   0.016
    2        0.001   0.000   0.009   0.005   0.015
    3        0.001   0.001   0.013   0.007   0.022
    4        0.001   0.001   0.013   0.007   0.022
    5        0.001   0.000   0.009   0.005   0.015
    6        0.001   0.000   0.009   0.006   0.016
    7        0.024   0.026   3.813   0.000   3.863
    8        0.026   0.028   3.726   0.000   3.780
    9        0.024   0.027   3.742   0.000   3.794
   10        0.024   0.026   3.812   0.000   3.863
   11        0.026   0.028   3.726   0.000   3.780
   12        0.013   0.007   1.695   0.000   1.715
   13        0.006  -0.008   0.000   0.000  -0.002
   14        0.006  -0.037   0.000   0.000  -0.031
   15        0.007  -0.037   0.000   0.000  -0.031
   16        0.007  -0.037   0.000   0.000  -0.031
   17        0.006  -0.037   0.000   0.000  -0.031
   18        0.006  -0.008   0.000   0.000  -0.002
   19        0.006  -0.031   0.000   0.000  -0.024
   20        0.004  -0.045   0.000   0.000  -0.041
   21        0.006  -0.031   0.000   0.000  -0.024
   22        0.006  -0.008   0.000   0.000  -0.002
   23        0.008  -0.041   0.000   0.000  -0.033
   24        0.006  -0.008   0.000   0.000  -0.002
   25        0.005  -0.040   0.000   0.000  -0.035
   26        0.005  -0.042   0.000   0.000  -0.037
   27        0.005  -0.042   0.000   0.000  -0.037
   28        0.005  -0.042   0.000   0.000  -0.037
   29        0.005  -0.040   0.000   0.000  -0.035
   30        0.007   0.028   0.000   0.000   0.034
--------------------------------------------------
tot          0.245  -0.359  20.576   0.037  20.499

 
    CHARGE:  cpu time    0.1854: real time    0.1861
    FORLOC:  cpu time    0.0130: real time    0.0130
    FORNL :  cpu time    1.1874: real time    1.1911
    STRESS:  cpu time    3.5830: real time    3.5982
    FORCOR:  cpu time    0.0991: real time    0.0996
    FORHAR:  cpu time    0.0214: real time    0.0215
    MIXING:  cpu time    0.0056: real time    0.0057
    OFIELD:  cpu time    0.0001: real time    0.0003

  FORCE on cell =-STRESS in cart. coord.  units (eV):
  Direction    XX          YY          ZZ          XY          YZ          ZX
  --------------------------------------------------------------------------------------
  Alpha Z   961.30225   961.30225   961.30225
  Ewald   -4783.87332 -4906.92404 -4869.64825    -0.00000     4.98865    -0.00000
  Hartree  1073.53765   977.28511  1001.43322     0.00000     5.13024    -0.00000
  E(xc)   -1005.20953 -1005.27706 -1005.31950     0.00000     0.00236    -0.00000
  Local    -654.57001  -437.98113  -497.51728    -0.00000   -10.07501     0.00000
  n-local   389.97923   389.38921   390.02861    -0.00016    -0.03924    -0.00039
  augment   198.26460   198.70540   198.10221    -0.00000    -0.01050     0.00000
  Kinetic  3820.20981  3822.37411  3821.21528     0.00189     0.03496    -0.00101
  Fock        0.00000     0.00000     0.00000     0.00000     0.00000     0.00000
  -------------------------------------------------------------------------------------
  Total      -0.35932    -1.12616    -0.40346     0.00000     0.03146     0.00000
  in kB      -1.58879    -4.97944    -1.78395     0.00000     0.13910     0.00000
  external pressure =       -2.78 kB  Pullay stress =        0.00 kB


 VOLUME and BASIS-vectors are now :
 -----------------------------------------------------------------------------
  energy-cutoff  :      520.00
  volume of cell :      362.35
      direct lattice vectors                 reciprocal lattice vectors
    -3.914692451  0.000000000  0.000000000    -0.255447909  0.000000000  0.000000000
     0.000000000  3.932071258  7.843482934     0.000000000  0.084758962  0.085003273
     0.000000000  7.868050740 -7.845436847     0.000000000  0.084737852 -0.042480525

  length of vectors
     3.914692451  8.773904998 11.111125135     0.255447909  0.120040152  0.094789760


 FORCES acting on ions
    electron-ion (+dipol)            ewald-force                    non-local-force                 convergence-correction
 -----------------------------------------------------------------------------------------------
   0.114E-14 -.891E+02 -.701E+02   -.187E-13 0.883E+02 0.696E+02   0.000E+00 0.735E+00 0.552E+00   -.120E-13 0.145E-01 0.148E-01
   -.500E-15 -.940E+02 0.803E+02   0.176E-13 0.933E+02 -.797E+02   0.000E+00 0.691E+00 -.592E+00   -.995E-14 0.224E-01 -.309E-01
   -.157E-14 -.500E+01 0.158E+02   -.224E-13 0.508E+01 -.155E+02   0.000E+00 -.541E-01 -.283E+00   -.545E-14 0.835E-02 0.128E-01
   -.373E-15 0.500E+01 -.158E+02   0.364E-14 -.508E+01 0.155E+02   0.000E+00 0.541E-01 0.283E+00   -.259E-14 -.835E-02 -.128E-01
   -.146E-14 0.940E+02 -.803E+02   -.114E-13 -.933E+02 0.797E+02   0.000E+00 -.691E+00 0.592E+00   -.116E-15 -.225E-01 0.309E-01
   -.339E-14 0.891E+02 0.701E+02   0.391E-14 -.883E+02 -.696E+02   0.000E+00 -.735E+00 -.552E+00   -.163E-14 -.145E-01 -.148E-01
   -.537E-13 0.325E+02 -.280E+00   0.127E-13 -.321E+02 0.425E+00   0.000E+00 -.389E+00 -.169E+00   -.156E-13 -.110E-01 0.256E-02
   -.497E-13 0.533E+01 -.296E+02   -.104E-13 -.514E+01 0.295E+02   0.000E+00 -.190E+00 0.946E-01   -.847E-14 -.148E-01 0.575E-02
   -.483E-13 -.259E-04 -.572E-05   0.155E-13 0.200E-03 0.619E-04   0.000E+00 0.000E+00 0.339E-20   -.164E-13 -.246E-05 -.115E-05
   -.536E-13 -.325E+02 0.280E+00   -.333E-13 0.321E+02 -.425E+00   0.000E+00 0.389E+00 0.169E+00   -.562E-14 0.110E-01 -.256E-02
   -.551E-13 -.533E+01 0.296E+02   0.503E-13 0.514E+01 -.295E+02   0.000E+00 0.190E+00 -.946E-01   -.103E-13 0.148E-01 -.574E-02
   -.290E-12 -.104E-04 0.403E-04   -.771E-14 0.280E-03 0.868E-04   0.000E+00 -.136E-19 -.136E-19   -.634E-13 -.603E-06 -.313E-05
   -.113E-12 0.332E+01 -.778E+02   -.371E-14 -.339E+01 0.741E+02   0.000E+00 0.719E-01 0.361E+01   -.247E-13 -.531E-02 0.215E-01
   -.113E-12 0.122E+02 -.873E+01   0.663E-14 -.117E+02 0.107E+02   0.000E+00 -.504E+00 -.204E+01   -.135E-13 -.108E-01 -.850E-02
   -.117E-12 0.910E+01 -.454E+01   -.133E-13 -.850E+01 0.375E+01   0.000E+00 -.619E+00 0.893E+00   -.184E-13 -.561E-02 0.269E-01
   -.115E-12 -.910E+01 0.454E+01   0.920E-14 0.850E+01 -.375E+01   0.000E+00 0.619E+00 -.893E+00   -.877E-14 0.561E-02 -.269E-01
   -.112E-12 -.122E+02 0.873E+01   0.186E-13 0.117E+02 -.107E+02   0.000E+00 0.504E+00 0.204E+01   -.155E-13 0.109E-01 0.851E-02
   -.120E-12 -.333E+01 0.778E+02   0.304E-13 0.339E+01 -.741E+02   0.000E+00 -.719E-01 -.361E+01   -.122E-13 0.531E-02 -.215E-01
   -.110E-12 0.126E+02 -.719E+01   -.210E-13 -.119E+02 0.654E+01   0.000E+00 -.703E+00 0.658E+00   -.260E-13 -.189E-01 0.498E-02
   -.110E-12 -.114E-03 -.242E-04   -.217E-13 0.216E-03 0.135E-04   0.000E+00 -.271E-18 -.271E-19   -.272E-13 0.607E-06 0.188E-05
   -.108E-12 -.126E+02 0.719E+01   0.265E-13 0.119E+02 -.654E+01   0.000E+00 0.703E+00 -.658E+00   -.308E-13 0.189E-01 -.498E-02
   -.114E-12 -.901E+02 0.128E+01   -.106E-13 0.872E+02 -.127E+01   0.000E+00 0.297E+01 -.581E-02   -.268E-13 0.183E-01 -.364E-02
   -.111E-12 -.126E-03 -.151E-04   -.323E-14 0.221E-03 0.184E-04   0.000E+00 0.000E+00 -.190E-18   -.144E-13 0.237E-05 0.936E-06
   -.108E-12 0.901E+02 -.128E+01   0.234E-14 -.872E+02 0.127E+01   0.000E+00 -.297E+01 0.581E-02   -.229E-13 -.183E-01 0.364E-02
   0.116E-14 0.167E+01 -.286E+02   0.416E-13 -.120E+01 0.290E+02   0.000E+00 -.510E+00 -.507E+00   -.159E-13 -.931E-02 0.533E-02
   0.177E-14 0.287E+02 -.885E+00   -.771E-14 -.288E+02 0.869E+00   0.000E+00 0.168E+00 0.142E-01   -.104E-13 -.930E-02 0.299E-02
   -.119E-14 -.256E-04 -.120E-04   -.133E-13 0.960E-04 0.831E-04   0.000E+00 0.190E-18 0.190E-18   -.756E-14 -.225E-05 -.105E-05
   -.747E-15 -.287E+02 0.885E+00   0.314E-13 0.288E+02 -.869E+00   0.000E+00 -.168E+00 -.142E-01   -.180E-13 0.930E-02 -.298E-02
   0.812E-15 -.167E+01 0.286E+02   -.320E-13 0.120E+01 -.290E+02   0.000E+00 0.510E+00 0.507E+00   -.972E-14 0.932E-02 -.533E-02
   0.868E-15 -.328E-04 -.261E-05   0.849E-14 0.979E-04 0.894E-04   0.000E+00 -.940E-19 0.305E-19   0.659E-15 -.419E-06 -.189E-05
 -----------------------------------------------------------------------------------------------
   -.191E-11 -.107E-01 0.783E-04   0.485E-13 -.337E-13 0.462E-13   0.000E+00 0.444E-15 -.111E-15   -.453E-12 -.454E-05 -.397E-05
 
 
 POSITION                                       TOTAL-FORCE (eV/Angst)
 -----------------------------------------------------------------------------------
      0.00000      3.85118      3.85878         0.000000     -0.004684      0.055446
      0.00000      3.85870      0.07331         0.000000      0.032326     -0.041231
      0.00000      3.94118     -3.89179         0.000000      0.037076      0.085630
      0.00000      7.85960     -0.03223         0.000000     -0.037076     -0.085630
      0.00000      7.94207     -3.99733         0.000000     -0.032326      0.041231
      0.00000      0.08155      0.06264         0.000000      0.004684     -0.055446
     -1.95735      9.82586      1.95596         0.000000      0.007448     -0.020178
     -1.95735      9.84070     -1.95388         0.000000     -0.010637     -0.011653
     -1.95735      5.90039     -1.96201         0.000000      0.000000      0.000000
     -1.95735      5.90698      1.96351         0.000000     -0.007448      0.020178
     -1.95735      5.89215      5.87334         0.000000      0.010637      0.011653
     -1.95735      1.96636      1.96071         0.000000      0.000000      0.000000
     -1.95735      9.83524     -3.89324         0.000000     -0.000500      0.013234
     -1.95735      9.81543     -0.02677         0.000000     -0.022103     -0.091199
     -1.95735      5.88413     -3.91410         0.000000     -0.024526      0.134981
     -1.95735      5.91664     -0.00992         0.000000      0.024526     -0.134981
     -1.95735      5.91742      3.94623         0.000000      0.022103      0.091199
     -1.95735      1.96553     -0.03078         0.000000      0.000500     -0.013234
     -1.95735      7.85863     -1.94911         0.000000     -0.016640      0.019112
     -1.95735      7.86642      1.95973         0.000000      0.000000      0.000000
     -1.95735      3.94215     -1.97491         0.000000      0.016640     -0.019112
     -1.95735      3.95039      1.96066         0.000000      0.101494     -0.004241
     -1.95735      3.93240      5.88245         0.000000      0.000000      0.000000
     -1.95735      7.85039     -5.88468         0.000000     -0.101494      0.004241
      0.00000      9.82266     -1.97172         0.000000     -0.051371     -0.078664
      0.00000      9.82398      1.95283         0.000000      0.058062      0.001162
      0.00000      5.90039     -1.96201         0.000000      0.000000      0.000000
      0.00000      5.90887      1.96663         0.000000     -0.058062     -0.001162
      0.00000      1.97811     -1.95230         0.000000      0.051371      0.078664
      0.00000      1.96636      1.96071         0.000000      0.000000     -0.000000
 -----------------------------------------------------------------------------------
    total drift:                               -0.000000     -0.010719      0.000074


--------------------------------------------------------------------------------------------------------



  FREE ENERGIE OF THE ION-ELECTRON SYSTEM (eV)
  ---------------------------------------------------
  free  energy   TOTEN  =      -232.27766137 eV

  energy  without entropy=     -232.27766137  energy(sigma->0) =     -232.27766137
 


--------------------------------------------------------------------------------------------------------


    POTLOK:  cpu time    0.0990: real time    0.0992


--------------------------------------------------------------------------------------------------------


     LOOP+:  cpu time  113.0694: real time  113.5528
    4ORBIT:  cpu time    0.0000: real time    0.0000
 


 total charge     
 
# of ion       s       p       d       f       tot
--------------------------------------------------
    1        1.999   5.694   0.475   0.184   8.351
    2        1.999   5.694   0.476   0.184   8.352
    3        1.998   5.696   0.475   0.184   8.354
    4        1.998   5.696   0.475   0.184   8.354
    5        1.999   5.694   0.476   0.184   8.352
    6        1.999   5.694   0.475   0.184   8.352
    7        0.311   0.465   4.894   0.000   5.669
    8        0.320   0.484   4.884   0.000   5.688
    9        0.317   0.479   4.881   0.000   5.677
   10        0.311   0.465   4.894   0.000   5.669
   11        0.320   0.484   4.884   0.000   5.688
   12        0.396   0.570   8.332   0.000   9.298
   13        1.560   3.457   0.000   0.000   5.016
   14        1.564   3.454   0.000   0.000   5.018
   15        1.564   3.451   0.000   0.000   5.016
   16        1.564   3.451   0.000   0.000   5.016
   17        1.564   3.454   0.000   0.000   5.018
   18        1.560   3.457   0.000   0.000   5.016
   19        1.564   3.452   0.000   0.000   5.016
   20        1.563   3.455   0.000   0.000   5.018
   21        1.564   3.452   0.000   0.000   5.016
   22        1.560   3.454   0.000   0.000   5.013
   23        1.566   3.446   0.000   0.000   5.012
   24        1.560   3.454   0.000   0.000   5.013
   25        1.564   3.454   0.000   0.000   5.018
   26        1.563   3.455   0.000   0.000   5.019
   27        1.563   3.451   0.000   0.000   5.014
   28        1.563   3.455   0.000   0.000   5.019
   29        1.564   3.454   0.000   0.000   5.018
   30        1.555   3.461   0.000   0.000   5.017
--------------------------------------------------
tot         42.090  99.282  35.622   1.103 178.098

 


 magnetization (x)
 
# of ion       s       p       d       f       tot
--------------------------------------------------
    1        0.001   0.000   0.009   0.006   0.016
    2        0.001   0.000   0.009   0.005   0.015
    3        0.001   0.001   0.013   0.007   0.022
    4        0.001   0.001   0.013   0.007   0.022
    5        0.001   0.000   0.009   0.005   0.015
    6        0.001   0.000   0.009   0.006   0.016
    7        0.024   0.026   3.813   0.000   3.863
    8        0.026   0.028   3.726   0.000   3.780
    9        0.024   0.027   3.742   0.000   3.794
   10        0.024   0.026   3.812   0.000   3.863
   11        0.026   0.028   3.726   0.000   3.780
   12        0.013   0.007   1.695   0.000   1.715
   13        0.006  -0.008   0.000   0.000  -0.002
   14        0.006  -0.037   0.000   0.000  -0.031
   15        0.007  -0.037   0.000   0.000  -0.031
   16        0.007  -0.037   0.000   0.000  -0.031
   17        0.006  -0.037   0.000   0.000  -0.031
   18        0.006  -0.008   0.000   0.000  -0.002
   19        0.006  -0.031   0.000   0.000  -0.024
   20        0.004  -0.045   0.000   0.000  -0.041
   21        0.006  -0.031   0.000   0.000  -0.024
   22        0.006  -0.008   0.000   0.000  -0.002
   23        0.008  -0.041   0.000   0.000  -0.033
   24        0.006  -0.008   0.000   0.000  -0.002
   25        0.005  -0.040   0.000   0.000  -0.035
   26        0.005  -0.042   0.000   0.000  -0.037
   27        0.005  -0.042   0.000   0.000  -0.037
   28        0.005  -0.042   0.000   0.000  -0.037
   29        0.005  -0.040   0.000   0.000  -0.035
   30        0.007   0.028   0.000   0.000   0.034
--------------------------------------------------
tot          0.245  -0.359  20.576   0.037  20.499

 
 BZINTS: Fermi energy:  7.929502;219.000000 electrons
         Band energy:-422.691843;  BLOECHL correction: -0.125432

 total amount of memory used by VASP MPI-rank0    78217. kBytes
=======================================================================

   base      :      30000. kBytes
   nonlr-proj:       7313. kBytes
   fftplans  :       2935. kBytes
   grid      :       8258. kBytes
   one-center:        294. kBytes
   wavefun   :      29417. kBytes
 
  
  
 General timing and accounting informations for this job:
 ========================================================
  
                  Total CPU time used (sec):      122.672
                            User time (sec):      119.516
                          System time (sec):        3.156
                         Elapsed time (sec):      123.327
  
                   Maximum memory used (kb):      133524.
                   Average memory used (kb):           0.
  
                          Minor page faults:        43437
                          Major page faults:            0
                 Voluntary context switches:          984
