       N       E                     dE             d eps       ncg     rms          rms(c)
DAV:   1     0.224985905203E+04    0.22499E+04   -0.53117E+04  4920   0.241E+03
DAV:   2     0.709181336184E+03   -0.15407E+04   -0.13919E+04  5280   0.604E+02
DAV:   3     0.978146169804E+02   -0.61137E+03   -0.56216E+03  5864   0.318E+02
DAV:   4    -0.131940450669E+03   -0.22976E+03   -0.21839E+03  7600   0.163E+02
DAV:   5    -0.174668408774E+03   -0.42728E+02   -0.41139E+02  8256   0.772E+01    0.556E+01
RMM:   6    -0.155272799207E+03    0.19396E+02   -0.46718E+02  7645   0.969E+01    0.870E+01
RMM:   7    -0.153791391546E+03    0.14814E+01   -0.76756E+01  7768   0.342E+01    0.355E+01
RMM:   8    -0.150414259472E+03    0.33771E+01   -0.36056E+01  6071   0.351E+01    0.189E+01
RMM:   9    -0.152829679998E+03   -0.24154E+01   -0.27702E+01  7554   0.168E+01    0.136E+01
RMM:  10    -0.153129924221E+03   -0.30024E+00   -0.59870E+00  8092   0.747E+00    0.643E+00
RMM:  11    -0.152900797953E+03    0.22913E+00   -0.28675E+00  7605   0.690E+00    0.361E+00
RMM:  12    -0.152979611508E+03   -0.78814E-01   -0.12639E+00  8300   0.271E+00    0.231E+00
RMM:  13    -0.152994156452E+03   -0.14545E-01   -0.31251E-01  7864   0.174E+00    0.183E+00
RMM:  14    -0.153010338862E+03   -0.16182E-01   -0.16602E-01  7663   0.104E+00    0.870E-01
RMM:  15    -0.153011065068E+03   -0.72621E-03   -0.46382E-02  6315   0.759E-01    0.633E-01
RMM:  16    -0.153013604947E+03   -0.25399E-02   -0.33289E-02  5856   0.487E-01    0.368E-01
RMM:  17    -0.153015103768E+03   -0.14988E-02   -0.18455E-02  5457   0.498E-01    0.114E-01
RMM:  18    -0.153016327581E+03   -0.12238E-02   -0.11251E-02  5018   0.430E-01    0.798E-02
RMM:  19    -0.153016624029E+03   -0.29645E-03   -0.55129E-03  4573   0.349E-01
   1 F= -.15301662E+03 E0= -.15301662E+03  d E =0.000000E+00  mag=    13.0005
