 vasp.5.4.4.18Apr17-6-g9f103f2a35 (build Oct 03 2018 13:58:34) complex          
  
 executed on             LinuxIFC date 2019.06.04  01:14:43
 running on   40 total cores
 distrk:  each k-point on   20 cores,    2 groups
 distr:  one band on NCORES_PER_BAND=  10 cores,    2 groups


--------------------------------------------------------------------------------------------------------


 INCAR:
 POTCAR:    PAW_PBE La 06Sep2000                  
 POTCAR:    PAW_PBE Mn 06Sep2000                  
 POTCAR:    PAW_PBE Ni 02Aug2007                  
 POTCAR:    PAW_PBE O 08Apr2002                   

 ----------------------------------------------------------------------------- 
|                                                                             |
|           W    W    AA    RRRRR   N    N  II  N    N   GGGG   !!!           |
|           W    W   A  A   R    R  NN   N  II  NN   N  G    G  !!!           |
|           W    W  A    A  R    R  N N  N  II  N N  N  G       !!!           |
|           W WW W  AAAAAA  RRRRR   N  N N  II  N  N N  G  GGG   !            |
|           WW  WW  A    A  R   R   N   NN  II  N   NN  G    G                |
|           W    W  A    A  R    R  N    N  II  N    N   GGGG   !!!           |
|                                                                             |
|      You have enabled k-point parallelism (KPAR>1).                         |
|      This developmental code was originally  written by Paul Kent at ORNL,  |
|      and carefully double checked in Vienna.                                |
|      GW as well as linear response parallelism added by Martijn Marsman     |
|      and Georg Kresse.                                                      |
|      Carefully verify results versus KPAR=1.                                |
|      Report problems to Paul Kent and Vienna.                               |
|                                                                             |
 ----------------------------------------------------------------------------- 

 POTCAR:    PAW_PBE La 06Sep2000                  
   VRHFIN =La : [core=Kr4d]                                                     
   LEXCH  = PE                                                                  
   EATOM  =   865.9763 eV,   63.6475 Ry                                         
                                                                                
   TITEL  = PAW_PBE La 06Sep2000                                                
   LULTRA =        F    use ultrasoft PP ?                                      
   IUNSCR =        1    unscreen: 0-lin 1-nonlin 2-no                           
   RPACOR =    2.300    partial core radius                                     
   POMASS =  138.900; ZVAL   =   11.000    mass and valenz                      
   RCORE  =    2.800    outmost cutoff radius                                   
   RWIGS  =    2.900; RWIGS  =    1.535    wigner-seitz radius (au A)           
   ENMAX  =  219.292; ENMIN  =  164.469 eV                                      
   RCLOC  =    1.601    cutoff for local pot                                    
   LCOR   =        T    correct aug charges                                     
   LPAW   =        T    paw PP                                                  
   EAUG   =  583.575                                                            
   DEXC   =    0.000                                                            
   RMAX   =    2.853    core radius for proj-oper                               
   RAUG   =    1.300    factor for augmentation sphere                          
   RDEP   =    2.802    radius for radial grids                                 
   RDEPT  =    2.156    core radius for aug-charge                              
                                                                                
   Atomic configuration                                                         
   14 entries                                                                   
     n  l   j            E        occ.                                          
     1  0  0.50    -38741.0879   2.0000                                         
     2  0  0.50     -6166.6801   2.0000                                         
     2  1  1.50     -5526.1593   6.0000                                         
     3  0  0.50     -1319.0200   2.0000                                         
     3  1  1.50     -1114.5963   6.0000                                         
     3  2  2.50      -821.1793  10.0000                                         
     4  0  0.50      -266.3851   2.0000                                         
     4  1  1.50      -199.9276   6.0000                                         
     4  2  2.50      -103.8239  10.0000                                         
     5  0  0.50       -38.9172   2.0000                                         
     6  0  0.50        -3.6792   2.0000                                         
     5  1  1.50       -22.3948   6.0000                                         
     5  2  2.50        -3.0911   0.9999                                         
     4  3  2.50        -4.3603   0.0001                                         
   Description                                                                  
     l       E           TYP  RCUT    TYP  RCUT                                 
     0    -38.9171645     23  2.800                                             
     0     -3.6792381     23  2.800                                             
     1    -22.3948300     23  2.500                                             
     1     27.2116520     23  2.500                                             
     2     -3.0910934     23  2.500                                             
     2      1.0119135     23  2.500                                             
     3     -4.3602911     23  2.800                                             
     3     -5.7208737     23  2.800                                             
  local pseudopotential read in
  partial core-charges read in
  partial kinetic energy density read in
  atomic valenz-charges read in
  non local Contribution for L=           0  read in
    real space projection operators read in
  non local Contribution for L=           0  read in
    real space projection operators read in
  non local Contribution for L=           1  read in
    real space projection operators read in
  non local Contribution for L=           1  read in
    real space projection operators read in
  non local Contribution for L=           2  read in
    real space projection operators read in
  non local Contribution for L=           2  read in
    real space projection operators read in
  non local Contribution for L=           3  read in
    real space projection operators read in
  non local Contribution for L=           3  read in
    real space projection operators read in
    PAW grid and wavefunctions read in
 
   number of l-projection  operators is LMAX  =           8
   number of lm-projection operators is LMMAX =          32
 
 POTCAR:    PAW_PBE Mn 06Sep2000                  
   VRHFIN =Mn: d6 s1                                                            
   LEXCH  = PE                                                                  
   EATOM  =   416.7541 eV,   30.6306 Ry                                         
                                                                                
   TITEL  = PAW_PBE Mn 06Sep2000                                                
   LULTRA =        F    use ultrasoft PP ?                                      
   IUNSCR =        1    unscreen: 0-lin 1-nonlin 2-no                           
   RPACOR =    2.000    partial core radius                                     
   POMASS =   54.938; ZVAL   =    7.000    mass and valenz                      
   RCORE  =    2.300    outmost cutoff radius                                   
   RWIGS  =    2.500; RWIGS  =    1.323    wigner-seitz radius (au A)           
   ENMAX  =  269.864; ENMIN  =  202.398 eV                                      
   RCLOC  =    1.725    cutoff for local pot                                    
   LCOR   =        T    correct aug charges                                     
   LPAW   =        T    paw PP                                                  
   EAUG   =  500.711                                                            
   DEXC   =    0.000                                                            
   RMAX   =    2.343    core radius for proj-oper                               
   RAUG   =    1.300    factor for augmentation sphere                          
   RDEP   =    2.338    radius for radial grids                                 
   RDEPT  =    1.911    core radius for aug-charge                              
                                                                                
   Atomic configuration                                                         
    9 entries                                                                   
     n  l   j            E        occ.                                          
     1  0  0.50     -6424.8288   2.0000                                         
     2  0  0.50      -739.1154   2.0000                                         
     2  1  1.50      -625.3949   6.0000                                         
     3  0  0.50       -81.6100   2.0000                                         
     3  1  1.50       -50.4667   6.0000                                         
     3  2  2.50        -3.3745   6.0000                                         
     4  0  0.50        -4.1331   1.0000                                         
     4  1  0.50        -4.0817   0.0000                                         
     4  3  2.50        -1.3606   0.0000                                         
   Description                                                                  
     l       E           TYP  RCUT    TYP  RCUT                                 
     2     -3.3744664     23  2.300                                             
     2     -4.7350490     23  2.300                                             
     0     -4.1331408     23  2.300                                             
     0      7.6656614     23  2.300                                             
     1     -2.7211652     23  2.300                                             
     1     20.4087390     23  2.300                                             
  local pseudopotential read in
  partial core-charges read in
  partial kinetic energy density read in
  atomic valenz-charges read in
  non local Contribution for L=           2  read in
    real space projection operators read in
  non local Contribution for L=           2  read in
    real space projection operators read in
  non local Contribution for L=           0  read in
    real space projection operators read in
  non local Contribution for L=           0  read in
    real space projection operators read in
  non local Contribution for L=           1  read in
    real space projection operators read in
  non local Contribution for L=           1  read in
    real space projection operators read in
    PAW grid and wavefunctions read in
 
   number of l-projection  operators is LMAX  =           6
   number of lm-projection operators is LMMAX =          18
 
 POTCAR:    PAW_PBE Ni 02Aug2007                  
   VRHFIN =Ni:                                                                  
   LEXCH  = PE                                                                  
   EATOM  =  1077.6739 eV,   79.2068 Ry                                         
                                                                                
   TITEL  = PAW_PBE Ni 02Aug2007                                                
   LULTRA =        F    use ultrasoft PP ?                                      
   IUNSCR =        1    unscreen: 0-lin 1-nonlin 2-no                           
   RPACOR =    2.000    partial core radius                                     
   POMASS =   58.690; ZVAL   =   10.000    mass and valenz                      
   RCORE  =    2.300    outmost cutoff radius                                   
   RWIGS  =    2.430; RWIGS  =    1.286    wigner-seitz radius (au A)           
   ENMAX  =  269.532; ENMIN  =  202.149 eV                                      
   RCLOC  =    1.201    cutoff for local pot                                    
   LCOR   =        T    correct aug charges                                     
   LPAW   =        T    paw PP                                                  
   EAUG   =  544.565                                                            
   DEXC   =    0.000                                                            
   RMAX   =    2.357    core radius for proj-oper                               
   RAUG   =    1.300    factor for augmentation sphere                          
   RDEP   =    2.390    radius for radial grids                                 
   RDEPT  =    1.838    core radius for aug-charge                              
                                                                                
   Atomic configuration                                                         
    9 entries                                                                   
     n  l   j            E        occ.                                          
     1  0  0.50     -8206.4253   2.0000                                         
     2  0  0.50      -976.1748   2.0000                                         
     2  1  1.50      -839.0571   6.0000                                         
     3  0  0.50      -105.9991   2.0000                                         
     3  1  1.50       -66.4603   6.0000                                         
     3  2  2.50        -4.6458   9.0000                                         
     4  0  0.50        -4.4926   1.0000                                         
     4  1  1.50        -4.0817   0.0000                                         
     4  3  2.50        -1.3606   0.0000                                         
   Description                                                                  
     l       E           TYP  RCUT    TYP  RCUT                                 
     2     -4.6457903     23  2.300                                             
     2     -6.0063729     23  2.300                                             
     0     -4.4925590     23  2.300                                             
     0      5.0102601     23  2.300                                             
     1     -2.7211652     23  2.300                                             
     1     16.5183231     23  2.300                                             
  local pseudopotential read in
  partial core-charges read in
  partial kinetic energy density read in
  atomic valenz-charges read in
  non local Contribution for L=           2  read in
    real space projection operators read in
  non local Contribution for L=           2  read in
    real space projection operators read in
  non local Contribution for L=           0  read in
    real space projection operators read in
  non local Contribution for L=           0  read in
    real space projection operators read in
  non local Contribution for L=           1  read in
    real space projection operators read in
  non local Contribution for L=           1  read in
    real space projection operators read in
    PAW grid and wavefunctions read in
 
   number of l-projection  operators is LMAX  =           6
   number of lm-projection operators is LMMAX =          18
 
 POTCAR:    PAW_PBE O 08Apr2002                   
   VRHFIN =O: s2p4                                                              
   LEXCH  = PE                                                                  
   EATOM  =   432.3788 eV,   31.7789 Ry                                         
                                                                                
   TITEL  = PAW_PBE O 08Apr2002                                                 
   LULTRA =        F    use ultrasoft PP ?                                      
   IUNSCR =        1    unscreen: 0-lin 1-nonlin 2-no                           
   RPACOR =    1.200    partial core radius                                     
   POMASS =   16.000; ZVAL   =    6.000    mass and valenz                      
   RCORE  =    1.520    outmost cutoff radius                                   
   RWIGS  =    1.550; RWIGS  =    0.820    wigner-seitz radius (au A)           
   ENMAX  =  400.000; ENMIN  =  300.000 eV                                      
   ICORE  =        2    local potential                                         
   LCOR   =        T    correct aug charges                                     
   LPAW   =        T    paw PP                                                  
   EAUG   =  605.392                                                            
   DEXC   =    0.000                                                            
   RMAX   =    1.553    core radius for proj-oper                               
   RAUG   =    1.300    factor for augmentation sphere                          
   RDEP   =    1.550    radius for radial grids                                 
   RDEPT  =    1.329    core radius for aug-charge                              
                                                                                
   Atomic configuration                                                         
    4 entries                                                                   
     n  l   j            E        occ.                                          
     1  0  0.50      -514.6923   2.0000                                         
     2  0  0.50       -23.9615   2.0000                                         
     2  1  0.50        -9.0305   4.0000                                         
     3  2  1.50        -9.5241   0.0000                                         
   Description                                                                  
     l       E           TYP  RCUT    TYP  RCUT                                 
     0    -23.9615318     23  1.200                                             
     0     -9.5240782     23  1.200                                             
     1     -9.0304911     23  1.520                                             
     1      8.1634956     23  1.520                                             
     2     -9.5240782      7  1.500                                             
  local pseudopotential read in
  partial core-charges read in
  partial kinetic energy density read in
  kinetic energy density of atom read in
  atomic valenz-charges read in
  non local Contribution for L=           0  read in
    real space projection operators read in
  non local Contribution for L=           0  read in
    real space projection operators read in
  non local Contribution for L=           1  read in
    real space projection operators read in
  non local Contribution for L=           1  read in
    real space projection operators read in
    PAW grid and wavefunctions read in
 
   number of l-projection  operators is LMAX  =           4
   number of lm-projection operators is LMMAX =           8
 
 Optimization of the real space projectors (new method)

 maximal supplied QI-value         = 13.42
 optimisation between [QCUT,QGAM] = [ 11.67, 23.35] = [ 38.16,152.62] Ry 
 Optimized for a Real-space Cutoff    1.63 Angstroem

   l    n(q)    QCUT    max X(q) W(low)/X(q) W(high)/X(q)  e(spline) 
   0     11    11.673    13.882    0.27E-04    0.79E-05    0.11E-06
   0     11    11.673    12.184    0.39E-04    0.13E-04    0.19E-06
   1     11    11.673     4.523    0.73E-05    0.76E-05    0.12E-06
   1     11    11.673     4.424    0.87E-05    0.13E-04    0.19E-06
   2     10    11.673    52.481    0.65E-04    0.36E-04    0.18E-06
   2     10    11.673    38.501    0.61E-04    0.33E-04    0.17E-06
   3     10    11.673    65.631    0.17E-03    0.14E-03    0.37E-06
   3     10    11.673    56.854    0.17E-03    0.14E-03    0.37E-06
 Optimization of the real space projectors (new method)

 maximal supplied QI-value         = 16.25
 optimisation between [QCUT,QGAM] = [ 11.54, 23.24] = [ 37.28,151.24] Ry 
 Optimized for a Real-space Cutoff    1.53 Angstroem

   l    n(q)    QCUT    max X(q) W(low)/X(q) W(high)/X(q)  e(spline) 
   2     10    11.539   110.144    0.12E-03    0.13E-03    0.25E-06
   2     10    11.539   103.200    0.12E-03    0.13E-03    0.25E-06
   0     11    11.539    68.437    0.46E-04    0.21E-04    0.32E-06
   0     11    11.539    33.971    0.37E-04    0.19E-04    0.29E-06
   1     10    11.539    17.065    0.51E-04    0.22E-04    0.13E-06
   1     10    11.539    12.540    0.41E-04    0.18E-04    0.11E-06
 Optimization of the real space projectors (new method)

 maximal supplied QI-value         = 16.25
 optimisation between [QCUT,QGAM] = [ 11.54, 23.24] = [ 37.28,151.24] Ry 
 Optimized for a Real-space Cutoff    1.45 Angstroem

   l    n(q)    QCUT    max X(q) W(low)/X(q) W(high)/X(q)  e(spline) 
   2      9    11.539    60.317    0.19E-03    0.47E-04    0.16E-06
   2      9    11.539    55.921    0.19E-03    0.48E-04    0.16E-06
   0     10    11.539    51.690    0.80E-04    0.50E-04    0.24E-06
   0     10    11.539    30.015    0.73E-04    0.45E-04    0.22E-06
   1     10    11.539    18.849    0.87E-04    0.16E-03    0.71E-07
   1     10    11.539    14.624    0.73E-04    0.13E-03    0.64E-07
 Optimization of the real space projectors (new method)

 maximal supplied QI-value         = 24.76
 optimisation between [QCUT,QGAM] = [ 11.64, 23.27] = [ 37.91,151.63] Ry 
 Optimized for a Real-space Cutoff    1.14 Angstroem

   l    n(q)    QCUT    max X(q) W(low)/X(q) W(high)/X(q)  e(spline) 
   0      8    11.635    20.381    0.10E-03    0.33E-03    0.24E-06
   0      8    11.635    15.268    0.11E-03    0.35E-03    0.26E-06
   1      7    11.635     5.964    0.24E-03    0.31E-03    0.30E-06
   1      7    11.635     5.382    0.22E-03    0.25E-03    0.26E-06
  PAW_PBE La 06Sep2000                  :
 energy of atom  1       EATOM= -865.9763
 kinetic energy error for atom=    0.0009 (will be added to EATOM!!)
  PAW_PBE Mn 06Sep2000                  :
 energy of atom  2       EATOM= -416.7541
 kinetic energy error for atom=    0.0024 (will be added to EATOM!!)
  PAW_PBE Ni 02Aug2007                  :
 energy of atom  3       EATOM=-1077.6739
 kinetic energy error for atom=    0.0030 (will be added to EATOM!!)
  PAW_PBE O 08Apr2002                   :
 energy of atom  4       EATOM= -432.3788
 kinetic energy error for atom=    0.0208 (will be added to EATOM!!)
 
 
 POSCAR: SCEL4_1_4_1_2_0_0/0                     
  positions in direct lattice
  velocities in cartesian coordinates
 exchange correlation table for  LEXCH =        8
   RHO(1)=    0.500       N(1)  =     2000
   RHO(2)=  100.500       N(2)  =     4000
 


--------------------------------------------------------------------------------------------------------


 ion  position               nearest neighbor table
   1  0.000  0.255  0.494-  20 2.69  15 2.72  15 2.72  12 2.73  12 2.73  19 2.75  18 2.77  11 2.79
                            11 2.79  13 2.80  13 2.80   8 3.32   8 3.32   5 3.38   5 3.38   6 3.39
   2  0.000  0.495  0.006-  20 2.69  16 2.72  16 2.72  10 2.73  10 2.73  17 2.75  18 2.77  11 2.79
                            11 2.79  14 2.80  14 2.80   8 3.32   8 3.32   7 3.38   7 3.38   6 3.39
   3  0.000  0.740  0.494-  20 2.69  15 2.72  15 2.72  10 2.73  10 2.73  19 2.75  18 2.77   9 2.79
                             9 2.79  13 2.80  13 2.80   8 3.32   8 3.32   5 3.38   5 3.38   6 3.39
   4  0.000  0.010  0.006-  20 2.69  16 2.72  16 2.72  12 2.73  12 2.73  17 2.75  18 2.77   9 2.79
                             9 2.79  14 2.80  14 2.80   8 3.32   8 3.32   7 3.38   7 3.38   6 3.39
   5  0.500  0.625  0.751-  14 1.91  15 1.92  11 1.95   9 1.95  19 1.95  19 1.95   1 3.38   1 3.38
                             3 3.38   3 3.38
   6  0.500  0.875  0.250-  10 1.90  12 1.90  18 1.95  18 1.95  13 1.99  14 1.99   1 3.39   1 3.39
                             2 3.39   2 3.39   3 3.39   3 3.39   4 3.39   4 3.39
   7  0.500  0.125  0.749-  13 1.91  16 1.92  11 1.95   9 1.95  17 1.95  17 1.95   2 3.38   2 3.38
                             4 3.38   4 3.38
   8  0.500  0.375  0.250-  20 1.95  20 1.95  15 1.99  16 1.99  10 2.00  12 2.00   3 3.32   3 3.32
                             4 3.32   4 3.32   2 3.32   2 3.32   1 3.32   1 3.32
   9  0.500  0.875  0.750-   5 1.95   7 1.95   3 2.79   4 2.79   3 2.79   4 2.79
  10  0.500  0.631  0.250-   6 1.90   8 2.00   2 2.73   2 2.73   3 2.73   3 2.73
  11  0.500  0.375  0.750-   5 1.95   7 1.95   1 2.79   2 2.79   1 2.79   2 2.79
  12  0.500  0.119  0.250-   6 1.90   8 2.00   1 2.73   1 2.73   4 2.73   4 2.73
  13  0.500  0.002  0.504-   7 1.91   6 1.99   3 2.80   3 2.80   1 2.80   1 2.80
  14  0.500  0.748  0.996-   5 1.91   6 1.99   4 2.80   4 2.80   2 2.80   2 2.80
  15  0.500  0.502  0.504-   5 1.92   8 1.99   1 2.72   1 2.72   3 2.72   3 2.72
  16  0.500  0.248  0.996-   7 1.92   8 1.99   2 2.72   2 2.72   4 2.72   4 2.72
  17  0.000  0.126  0.751-   7 1.95   7 1.95   2 2.75   4 2.75
  18  0.000  0.875  0.250-   6 1.95   6 1.95   1 2.77   2 2.77   3 2.77   4 2.77
  19  0.000  0.624  0.749-   5 1.95   5 1.95   1 2.75   3 2.75
  20  0.000  0.375  0.250-   8 1.95   8 1.95   3 2.69   4 2.69   1 2.69   2 2.69
 
  LATTYP: Found a base centered orthorhombic cell.
 ALAT       =     7.8008196186
 B/A-ratio  =     2.0041130882
 C/A-ratio  =     0.5004657173
  
  Lattice vectors:
  
 A1 = (   0.0000000000,   7.8168623482,   3.9004098044)
 A2 = (   0.0000000000,  -7.8168623482,   3.9004098142)
 A3 = (   3.9040427857,   0.0000000000,   0.0000000000)


Analysis of symmetry for initial positions (statically):
=====================================================================
 Subroutine PRICEL returns:
 Original cell was already a primitive cell.
 

 Routine SETGRP: Setting up the symmetry group for a 
 base centered orthorhombic supercell.


 Subroutine GETGRP returns: Found  8 space group operations
 (whereof  2 operations were pure point group operations)
 out of a pool of  8 trial point group operations.


The static configuration has the point symmetry C_1h.
 The point group associated with its full space group is D_2h.


Analysis of symmetry for dynamics (positions and initial velocities):
=====================================================================
 Subroutine PRICEL returns:
 Original cell was already a primitive cell.
 

 Routine SETGRP: Setting up the symmetry group for a 
 base centered orthorhombic supercell.


 Subroutine GETGRP returns: Found  8 space group operations
 (whereof  2 operations were pure point group operations)
 out of a pool of  8 trial point group operations.


The dynamic configuration has the point symmetry C_1h.
 The point group associated with its full space group is D_2h.


Analysis of structural, dynamic, and magnetic symmetry:
=====================================================================
 Subroutine PRICEL returns:
 Original cell was already a primitive cell.
 

 Routine SETGRP: Setting up the symmetry group for a 
 base centered orthorhombic supercell.


 Subroutine GETGRP returns: Found  8 space group operations
 (whereof  2 operations were pure point group operations)
 out of a pool of  8 trial point group operations.


The magnetic configuration has the point symmetry C_1h.
 The point group associated with its full space group is D_2h.


 Subroutine INISYM returns: Found  8 space group operations
 (whereof  2 operations are pure point group operations),
 and found     1 'primitive' translations

 
 
 KPOINTS: Automatic mesh                          

Automatic generation of k-mesh.
 generate k-points for:    5    3    3
Space group operators:
 irot       det(A)        alpha          n_x          n_y          n_z        tau_x        tau_y        tau_z
    1     1.000000     0.000000     1.000000     0.000000     0.000000     0.000000     0.000000     0.000000
    2    -1.000000   180.000000     1.000000     0.000000     0.000000     0.000000     0.000000     0.000000
    3    -1.000000     0.000000     1.000000     0.000000     0.000000     0.000000     0.750000     0.500000
    4     1.000000   180.000000     1.000000     0.000000     0.000000     0.000000     0.750000     0.500000
    5     1.000000   180.000000     0.000000    -1.000000     0.000000     0.000000     0.500000     0.000000
    6    -1.000000   180.000000     0.000000    -1.000000     0.000000     0.000000     0.250000    -0.500000
    7     1.000000   179.999999     0.000000     0.000000     1.000000     0.000000     0.250000    -0.500000
    8    -1.000000   179.999999     0.000000     0.000000     1.000000     0.000000     0.500000     0.000000
 
 Subroutine IBZKPT returns following result:
 ===========================================
 
 Found     12 irreducible k-points:
 
 Following reciprocal coordinates:
            Coordinates               Weight
  0.000000  0.000000  0.000000      1.000000
  0.200000  0.000000  0.000000      2.000000
  0.400000  0.000000  0.000000      2.000000
  0.000000  0.333333  0.000000      4.000000
  0.200000  0.333333  0.000000      8.000000
  0.400000  0.333333  0.000000      8.000000
  0.000000  0.000000  0.333333      2.000000
  0.200000  0.000000  0.333333      4.000000
  0.400000  0.000000  0.333333      4.000000
  0.000000  0.333333  0.333333      2.000000
  0.200000  0.333333  0.333333      4.000000
  0.400000  0.333333  0.333333      4.000000
 
 Following cartesian coordinates:
            Coordinates               Weight
  0.000000  0.000000  0.000000      1.000000
 -0.051229  0.000000  0.000000      2.000000
 -0.102458  0.000000  0.000000      2.000000
  0.000000  0.021321  0.042731      4.000000
 -0.051229  0.021321  0.042731      8.000000
 -0.102458  0.021321  0.042731      8.000000
  0.000000  0.042643 -0.000000      2.000000
 -0.051229  0.042643 -0.000000      4.000000
 -0.102458  0.042643 -0.000000      4.000000
  0.000000  0.063964  0.042731      2.000000
 -0.051229  0.063964  0.042731      4.000000
 -0.102458  0.063964  0.042731      4.000000
 
 TETIRR: Found     90 inequivalent tetrahedra from      270


--------------------------------------------------------------------------------------------------------




 Dimension of arrays:
   k-points           NKPTS =     12   k-points in BZ     NKDIM =     12   number of bands    NBANDS=     96
   number of dos      NEDOS =    301   number of ions     NIONS =     20
   non local maximal  LDIM  =      8   non local SUM 2l+1 LMDIM =     32
   total plane-waves  NPLWV = 126000
   max r-space proj   IRMAX =   9602   max aug-charges    IRDMAX=  27853
   dimension x,y,z NGX =    30 NGY =   60 NGZ =   70
   dimension x,y,z NGXF=    60 NGYF=  120 NGZF=  140
   support grid    NGXF=    60 NGYF=  120 NGZF=  140
   ions per type =               4   3   1  12
   NGX,Y,Z   is equivalent  to a cutoff of  12.77, 12.79, 13.32 a.u.
   NGXF,Y,Z  is equivalent  to a cutoff of  25.55, 25.57, 26.64 a.u.

 SYSTEM =  final                                   
 POSCAR =  SCEL4_1_4_1_2_0_0/0                     

 Startparameter for this run:
   NWRITE =      2    write-flag & timer
   PREC   = accura    normal or accurate (medium, high low for compatibility)
   ISTART =      0    job   : 0-new  1-cont  2-samecut
   ICHARG =      1    charge: 1-file 2-atom 10-const
   ISPIN  =      2    spin polarized calculation?
   LNONCOLLINEAR =      F non collinear calculations
   LSORBIT =      F    spin-orbit coupling
   INIWAV =      1    electr: 0-lowe 1-rand  2-diag
   LASPH  =      F    aspherical Exc in radial PAW
   METAGGA=      F    non-selfconsistent MetaGGA calc.

 Electronic Relaxation 1
   ENCUT  =  520.0 eV  38.22 Ry    6.18 a.u.   7.26 14.50 16.24*2*pi/ulx,y,z
   ENINI  =  520.0     initial cutoff
   ENAUG  =  605.4 eV  augmentation charge cutoff
   NELM   =    100;   NELMIN=  2; NELMDL= -5     # of ELM steps 
   EDIFF  = 0.1E-02   stopping-criterion for ELM
   LREAL  =      T    real-space projection
   NLSPLINE    = F    spline interpolate recip. space projectors
   LCOMPAT=      F    compatible to vasp.4.4
   GGA_COMPAT  = T    GGA compatible to vasp.4.4-vasp.4.6
   LMAXPAW     = -100 max onsite density
   LMAXMIX     =    6 max onsite mixed and CHGCAR
   VOSKOWN=      0    Vosko Wilk Nusair interpolation
   ROPT   =   -0.00025  -0.00025  -0.00025  -0.00025
 Ionic relaxation
   EDIFFG = 0.1E-01   stopping-criterion for IOM
   NSW    =      0    number of steps for IOM
   NBLOCK =      1;   KBLOCK =      1    inner block; outer block 
   IBRION =     -1    ionic relax: 0-MD 1-quasi-New 2-CG
   NFREE  =      0    steps in history (QN), initial steepest desc. (CG)
   ISIF   =      2    stress and relaxation
   IWAVPR =     10    prediction:  0-non 1-charg 2-wave 3-comb
   ISYM   =      2    0-nonsym 1-usesym 2-fastsym
   LCORR  =      T    Harris-Foulkes like correction to forces

   POTIM  = 0.5000    time-step for ionic-motion
   TEIN   =    0.0    initial temperature
   TEBEG  =    0.0;   TEEND  =   0.0 temperature during run
   SMASS  =  -3.00    Nose mass-parameter (am)
   estimated Nose-frequenzy (Omega)   =  0.10E-29 period in steps =****** mass=  -0.348E-27a.u.
   SCALEE = 1.0000    scale energy and forces
   NPACO  =    256;   APACO  = 16.0  distance and # of slots for P.C.
   PSTRESS=    0.0 pullay stress

  Mass of Ions in am
   POMASS = 138.90 54.94 58.69 16.00
  Ionic Valenz
   ZVAL   =  11.00  7.00 10.00  6.00
  Atomic Wigner-Seitz radii
   RWIGS  =  -1.00 -1.00 -1.00 -1.00
  virtual crystal weights 
   VCA    =   1.00  1.00  1.00  1.00
   NELECT =     147.0000    total number of electrons
   NUPDOWN=      -1.0000    fix difference up-down

 DOS related values:
   EMIN   =  10.00;   EMAX   =-10.00  energy-range for DOS
   EFERMI =   0.00
   ISMEAR =    -5;   SIGMA  =   0.05  broadening in eV -4-tet -1-fermi 0-gaus

 Electronic relaxation 2 (details)
   IALGO  =     68    algorithm
   LDIAG  =      T    sub-space diagonalisation (order eigenvalues)
   LSUBROT=      F    optimize rotation matrix (better conditioning)
   TURBO    =      0    0=normal 1=particle mesh
   IRESTART =      0    0=no restart 2=restart with 2 vectors
   NREBOOT  =      0    no. of reboots
   NMIN     =      0    reboot dimension
   EREF     =   0.00    reference energy to select bands
   IMIX   =      4    mixing-type and parameters
     AMIX     =   0.40;   BMIX     =  1.00
     AMIX_MAG =   1.60;   BMIX_MAG =  1.00
     AMIN     =   0.10
     WC   =   100.;   INIMIX=   1;  MIXPRE=   1;  MAXMIX= -45

 Intra band minimization:
   WEIMIN = 0.0000     energy-eigenvalue tresh-hold
   EBREAK =  0.26E-05  absolut break condition
   DEPER  =   0.30     relativ break condition  

   TIME   =   0.40     timestep for ELM

  volume/ion in A,a.u.               =      11.90        80.33
  Fermi-wavevector in a.u.,A,eV,Ry     =   1.394071  2.634412 26.442019  1.943434
  Thomas-Fermi vector in A             =   2.517656
 
 Write flags
   LWAVE        =      F    write WAVECAR
   LDOWNSAMPLE  =      F    k-point downsampling of WAVECAR
   LCHARG       =      T    write CHGCAR
   LVTOT        =      F    write LOCPOT, total local potential
   LVHAR        =      F    write LOCPOT, Hartree potential only
   LELF         =      F    write electronic localiz. function (ELF)
   LORBIT       =     11    0 simple, 1 ext, 2 COOP (PROOUT), +10 PAW based schemes


 Dipole corrections
   LMONO  =      F    monopole corrections only (constant potential shift)
   LDIPOL =      F    correct potential (dipole corrections)
   IDIPOL =      0    1-x, 2-y, 3-z, 4-all directions 
   EPSILON=  1.0000000 bulk dielectric constant

 LDA+U is selected, type is set to LDAUTYPE =  2
   angular momentum for each species LDAUL =     0    2    2    0
   U (eV)           for each species LDAUU =   0.0  3.9  6.2  0.0
   J (eV)           for each species LDAUJ =   0.0  0.0  0.0  0.0
 Exchange correlation treatment:
   GGA     =    --    GGA type
   LEXCH   =     8    internal setting for exchange type
   VOSKOWN=      0    Vosko Wilk Nusair interpolation
   LHFCALC =     F    Hartree Fock is set to
   LHFONE  =     F    Hartree Fock one center treatment
   AEXX    =    0.0000 exact exchange contribution

 Linear response parameters
   LEPSILON=     F    determine dielectric tensor
   LRPA    =     F    only Hartree local field effects (RPA)
   LNABLA  =     F    use nabla operator in PAW spheres
   LVEL    =     F    velocity operator in full k-point grid
   LINTERFAST=   F  fast interpolation
   KINTER  =     0    interpolate to denser k-point grid
   CSHIFT  =0.1000    complex shift for real part using Kramers Kronig
   OMEGAMAX=  -1.0    maximum frequency
   DEG_THRESHOLD= 0.2000000E-02 threshold for treating states as degnerate
   RTIME   =   -0.100 relaxation time in fs
  (WPLASMAI=    0.000 imaginary part of plasma frequency in eV, 0.658/RTIME)
   DFIELD  = 0.0000000 0.0000000 0.0000000 field for delta impulse in time
 
 Orbital magnetization related:
   ORBITALMAG=     F  switch on orbital magnetization
   LCHIMAG   =     F  perturbation theory with respect to B field
   DQ        =  0.001000  dq finite difference perturbation B field
   LLRAUG    =     F  two centre corrections for induced B field



--------------------------------------------------------------------------------------------------------


 Static calculation
 charge density and potential will be updated during run
 spin polarized calculation
 RMM-DIIS sequential band-by-band and
  variant of blocked Davidson during initial phase
 perform sub-space diagonalisation
    before iterative eigenvector-optimisation
 modified Broyden-mixing scheme, WC =      100.0
 initial mixing is a Kerker type mixing with AMIX =  0.4000 and BMIX =      1.0000
 Hartree-type preconditioning will be used
 using additional bands           22
 real space projection scheme for non local part
 use partial core corrections
 calculate Harris-corrections to forces 
   (improved forces if not selfconsistent)
 use gradient corrections 
 use of overlap-Matrix (Vanderbilt PP)
 Fermi weights with tetrahedron method with Bloechl corrections


--------------------------------------------------------------------------------------------------------


  energy-cutoff  :      520.00
  volume of cell :      238.06
      direct lattice vectors                 reciprocal lattice vectors
    -3.904042786  0.000000000  0.000000000    -0.256144734  0.000000000  0.000000000
     0.000000000  0.000000000  7.800819619     0.000000000  0.063964284  0.128191658
     0.000000000  7.816862348 -3.900409814     0.000000000  0.127928567 -0.000000000

  length of vectors
     3.904042786  7.800819619  8.735933476     0.256144734  0.143263850  0.127928567


 
 k-points in units of 2pi/SCALE and weight: Automatic mesh                          
   0.00000000  0.00000000  0.00000000       0.022
  -0.05122895  0.00000000  0.00000000       0.044
  -0.10245789  0.00000000  0.00000000       0.044
   0.00000000  0.02132143  0.04273055       0.089
  -0.05122895  0.02132143  0.04273055       0.178
  -0.10245789  0.02132143  0.04273055       0.178
   0.00000000  0.04264286 -0.00000000       0.044
  -0.05122895  0.04264286 -0.00000000       0.089
  -0.10245789  0.04264286 -0.00000000       0.089
   0.00000000  0.06396428  0.04273055       0.044
  -0.05122895  0.06396428  0.04273055       0.089
  -0.10245789  0.06396428  0.04273055       0.089
 
 k-points in reciprocal lattice and weights: Automatic mesh                          
   0.00000000  0.00000000  0.00000000       0.022
   0.20000000  0.00000000  0.00000000       0.044
   0.40000000  0.00000000  0.00000000       0.044
   0.00000000  0.33333333  0.00000000       0.089
   0.20000000  0.33333333  0.00000000       0.178
   0.40000000  0.33333333  0.00000000       0.178
   0.00000000  0.00000000  0.33333333       0.044
   0.20000000  0.00000000  0.33333333       0.089
   0.40000000  0.00000000  0.33333333       0.089
   0.00000000  0.33333333  0.33333333       0.044
   0.20000000  0.33333333  0.33333333       0.089
   0.40000000  0.33333333  0.33333333       0.089
 
 position of ions in fractional coordinates (direct lattice) 
   0.00000000  0.25458764  0.49425068
   0.00000000  0.49541236  0.00574932
   0.00000000  0.73966304  0.49425068
   0.00000000  0.01033696  0.00574932
   0.50000000  0.62533781  0.75067563
   0.50000000  0.87500000  0.25000000
   0.50000000  0.12466219  0.74932437
   0.50000000  0.37500000  0.25000000
   0.50000000  0.87500000  0.75000000
   0.50000000  0.63149552  0.25000000
   0.50000000  0.37500000  0.75000000
   0.50000000  0.11850448  0.25000000
   0.50000000  0.00221808  0.50443615
   0.50000000  0.74778192  0.99556385
   0.50000000  0.50222643  0.50445285
   0.50000000  0.24777357  0.99554715
   0.00000000  0.12554741  0.75109482
   0.00000000  0.87500000  0.25000000
   0.00000000  0.62445259  0.74890518
   0.00000000  0.37500000  0.25000000
 
 position of ions in cartesian coordinates  (Angst):
   0.00000000  3.86348952  0.05821203
   0.00000000  0.04494166  3.84219778
   0.00000000  3.86348952  3.84219778
   0.00000000  0.04494166  0.05821203
  -1.95202139  5.86792806  1.95020490
  -1.95202139  1.95421559  5.85061471
  -1.95202139  5.85736546 -1.95020491
  -1.95202139  1.95421559  1.95020490
  -1.95202139  5.86264676  3.90040981
  -1.95202139  1.95421559  3.95108017
  -1.95202139  5.86264676 -0.00000000
  -1.95202139  1.95421559 -0.05067036
  -1.95202139  3.94310796 -1.95020491
  -1.95202139  7.78218556  1.95020490
  -1.95202139  3.94323852  1.95020490
  -1.95202139  7.78205500 -1.95020491
   0.00000000  5.87120480 -1.95020491
   0.00000000  1.95421559  5.85061471
   0.00000000  5.85408872  1.95020490
   0.00000000  1.95421559  1.95020490
 


--------------------------------------------------------------------------------------------------------


 k-point  1 :   0.0000 0.0000 0.0000  plane waves:    6385
 k-point  2 :   0.2000 0.0000 0.0000  plane waves:    6401
 k-point  3 :   0.4000 0.0000 0.0000  plane waves:    6422
 k-point  4 :   0.0000 0.3333 0.0000  plane waves:    6434
 k-point  5 :   0.2000 0.3333 0.0000  plane waves:    6407
 k-point  6 :   0.4000 0.3333 0.0000  plane waves:    6404
 k-point  7 :   0.0000 0.0000 0.3333  plane waves:    6423
 k-point  8 :   0.2000 0.0000 0.3333  plane waves:    6404
 k-point  9 :   0.4000 0.0000 0.3333  plane waves:    6419
 k-point 10 :   0.0000 0.3333 0.3333  plane waves:    6392
 k-point 11 :   0.2000 0.3333 0.3333  plane waves:    6420
 k-point 12 :   0.4000 0.3333 0.3333  plane waves:    6416

 maximum and minimum number of plane-waves per node :       666      617

 maximum number of plane-waves:      6434
 maximum index in each direction: 
   IXMAX=    7   IYMAX=   14   IZMAX=   16
   IXMIN=   -7   IYMIN=  -14   IZMIN=  -16


 real space projection operators:
  total allocation   :      15870.78 KBytes
  max/ min on nodes  :       1650.31       1554.38


 parallel 3D FFT for wavefunctions:
    minimum data exchange during FFTs selected (reduces bandwidth)
 parallel 3D FFT for charge:
    minimum data exchange during FFTs selected (reduces bandwidth)


 total amount of memory used by VASP MPI-rank0    56101. kBytes
=======================================================================

   base      :      30000. kBytes
   nonlr-proj:       5290. kBytes
   fftplans  :       2099. kBytes
   grid      :       5909. kBytes
   one-center:        196. kBytes
   wavefun   :      12607. kBytes
 
     INWAV:  cpu time    0.0000: real time    0.0001
 Broyden mixing: mesh for mixing (old mesh)
   NGX = 15   NGY = 29   NGZ = 33
  (NGX  = 60   NGY  =120   NGZ  =140)
  gives a total of  14355 points

 initial charge density was supplied:
 charge density of overlapping atoms calculated
 number of electron     147.0000000 magnetization      15.0000000
 keeping initial charge density in first step


--------------------------------------------------------------------------------------------------------


 Maximum index for non-local projection operator          953
 Maximum index for augmentation-charges         1141 (set IRDMAX)


--------------------------------------------------------------------------------------------------------


 First call to EWALD:  gamma=   0.286
 Maximum number of real-space cells 4x 2x 2
 Maximum number of reciprocal cells 2x 3x 4

    FEWALD:  cpu time    0.0017: real time    0.0028


--------------------------------------- Iteration      1(   1)  ---------------------------------------


    POTLOK:  cpu time    0.0593: real time    0.0621
    SETDIJ:  cpu time    0.0136: real time    0.0136
atom =   1  type =  1  l = 0
 
 onsite density matrix
 
spin component  1
 
  1.0989
 
spin component  2
 
  1.0989
 
 occupancies and eigenvectors
 
  o =  1.0989  v =  1.0000  0.0000      0.0000  0.0000
  o =  1.0989  v =  0.0000  1.0000      0.0000  0.0000
atom =   2  type =  1  l = 0
 
 onsite density matrix
 
spin component  1
 
  1.0989
 
spin component  2
 
  1.0989
 
 occupancies and eigenvectors
 
  o =  1.0989  v =  1.0000  0.0000      0.0000  0.0000
  o =  1.0989  v =  0.0000  1.0000      0.0000  0.0000
atom =   3  type =  1  l = 0
 
 onsite density matrix
 
spin component  1
 
  1.0989
 
spin component  2
 
  1.0989
 
 occupancies and eigenvectors
 
  o =  1.0989  v =  1.0000  0.0000      0.0000  0.0000
  o =  1.0989  v =  0.0000  1.0000      0.0000  0.0000
atom =   4  type =  1  l = 0
 
 onsite density matrix
 
spin component  1
 
  1.0989
 
spin component  2
 
  1.0989
 
 occupancies and eigenvectors
 
  o =  1.0989  v =  1.0000  0.0000      0.0000  0.0000
  o =  1.0989  v =  0.0000  1.0000      0.0000  0.0000
atom =   5  type =  2  l = 2
 
 onsite density matrix
 
spin component  1
 
  0.8272  0.0000  0.0000  0.0000  0.0000
  0.0000  0.8272  0.0000  0.0000  0.0000
  0.0000  0.0000  0.8272  0.0000  0.0000
  0.0000  0.0000  0.0000  0.8272  0.0000
  0.0000  0.0000  0.0000  0.0000  0.8272
 
spin component  2
 
  0.2256  0.0000  0.0000  0.0000  0.0000
  0.0000  0.2256  0.0000  0.0000  0.0000
  0.0000  0.0000  0.2256  0.0000  0.0000
  0.0000  0.0000  0.0000  0.2256  0.0000
  0.0000  0.0000  0.0000  0.0000  0.2256
 
 occupancies and eigenvectors
 
  o =  0.2256  v =  0.0000  0.0000  0.0000  0.0000  0.0000  0.0000  0.0000  1.0000  0.0000  0.0000      0.0000  0.0000  0.0000  0.0000  0.0000  0.0000  0.0000  0.0000  0.0000  0.0000
  o =  0.2256  v =  0.0000  0.0000  0.0000  0.0000  0.0000  1.0000  0.0000  0.0000  0.0000  0.0000      0.0000  0.0000  0.0000  0.0000  0.0000  0.0000  0.0000  0.0000  0.0000  0.0000
  o =  0.2256  v =  0.0000  0.0000  0.0000  0.0000  0.0000  0.0000  1.0000  0.0000  0.0000  0.0000      0.0000  0.0000  0.0000  0.0000  0.0000  0.0000  0.0000  0.0000  0.0000  0.0000
  o =  0.2256  v =  0.0000  0.0000  0.0000  0.0000  0.0000  0.0000  0.0000  0.0000  1.0000  0.0000      0.0000  0.0000  0.0000  0.0000  0.0000  0.0000  0.0000  0.0000  0.0000  0.0000
  o =  0.2256  v =  0.0000  0.0000  0.0000  0.0000  0.0000  0.0000  0.0000  0.0000  0.0000  1.0000      0.0000  0.0000  0.0000  0.0000  0.0000  0.0000  0.0000  0.0000  0.0000  0.0000
  o =  0.8272  v =  0.0000  1.0000  0.0000  0.0000  0.0000  0.0000  0.0000  0.0000  0.0000  0.0000      0.0000  0.0000  0.0000  0.0000  0.0000  0.0000  0.0000  0.0000  0.0000  0.0000
  o =  0.8272  v =  0.0000  0.0000  1.0000  0.0000  0.0000  0.0000  0.0000  0.0000  0.0000  0.0000      0.0000  0.0000  0.0000  0.0000  0.0000  0.0000  0.0000  0.0000  0.0000  0.0000
  o =  0.8272  v =  1.0000  0.0000  0.0000  0.0000  0.0000  0.0000  0.0000  0.0000  0.0000  0.0000      0.0000  0.0000  0.0000  0.0000  0.0000  0.0000  0.0000  0.0000  0.0000  0.0000
  o =  0.8272  v =  0.0000  0.0000  0.0000  1.0000  0.0000  0.0000  0.0000  0.0000  0.0000  0.0000      0.0000  0.0000  0.0000  0.0000  0.0000  0.0000  0.0000  0.0000  0.0000  0.0000
  o =  0.8272  v =  0.0000  0.0000  0.0000  0.0000  1.0000  0.0000  0.0000  0.0000  0.0000  0.0000      0.0000  0.0000  0.0000  0.0000  0.0000  0.0000  0.0000  0.0000  0.0000  0.0000
atom =   6  type =  2  l = 2
 
 onsite density matrix
 
spin component  1
 
  0.8272  0.0000  0.0000  0.0000  0.0000
  0.0000  0.8272  0.0000  0.0000  0.0000
  0.0000  0.0000  0.8272  0.0000  0.0000
  0.0000  0.0000  0.0000  0.8272  0.0000
  0.0000  0.0000  0.0000  0.0000  0.8272
 
spin component  2
 
  0.2256  0.0000  0.0000  0.0000  0.0000
  0.0000  0.2256  0.0000  0.0000  0.0000
  0.0000  0.0000  0.2256  0.0000  0.0000
  0.0000  0.0000  0.0000  0.2256  0.0000
  0.0000  0.0000  0.0000  0.0000  0.2256
 
 occupancies and eigenvectors
 
  o =  0.2256  v =  0.0000  0.0000  0.0000  0.0000  0.0000  0.0000  0.0000  1.0000  0.0000  0.0000      0.0000  0.0000  0.0000  0.0000  0.0000  0.0000  0.0000  0.0000  0.0000  0.0000
  o =  0.2256  v =  0.0000  0.0000  0.0000  0.0000  0.0000  1.0000  0.0000  0.0000  0.0000  0.0000      0.0000  0.0000  0.0000  0.0000  0.0000  0.0000  0.0000  0.0000  0.0000  0.0000
  o =  0.2256  v =  0.0000  0.0000  0.0000  0.0000  0.0000  0.0000  1.0000  0.0000  0.0000  0.0000      0.0000  0.0000  0.0000  0.0000  0.0000  0.0000  0.0000  0.0000  0.0000  0.0000
  o =  0.2256  v =  0.0000  0.0000  0.0000  0.0000  0.0000  0.0000  0.0000  0.0000  1.0000  0.0000      0.0000  0.0000  0.0000  0.0000  0.0000  0.0000  0.0000  0.0000  0.0000  0.0000
  o =  0.2256  v =  0.0000  0.0000  0.0000  0.0000  0.0000  0.0000  0.0000  0.0000  0.0000  1.0000      0.0000  0.0000  0.0000  0.0000  0.0000  0.0000  0.0000  0.0000  0.0000  0.0000
  o =  0.8272  v =  0.0000  1.0000  0.0000  0.0000  0.0000  0.0000  0.0000  0.0000  0.0000  0.0000      0.0000  0.0000  0.0000  0.0000  0.0000  0.0000  0.0000  0.0000  0.0000  0.0000
  o =  0.8272  v =  0.0000  0.0000  1.0000  0.0000  0.0000  0.0000  0.0000  0.0000  0.0000  0.0000      0.0000  0.0000  0.0000  0.0000  0.0000  0.0000  0.0000  0.0000  0.0000  0.0000
  o =  0.8272  v =  1.0000  0.0000  0.0000  0.0000  0.0000  0.0000  0.0000  0.0000  0.0000  0.0000      0.0000  0.0000  0.0000  0.0000  0.0000  0.0000  0.0000  0.0000  0.0000  0.0000
  o =  0.8272  v =  0.0000  0.0000  0.0000  1.0000  0.0000  0.0000  0.0000  0.0000  0.0000  0.0000      0.0000  0.0000  0.0000  0.0000  0.0000  0.0000  0.0000  0.0000  0.0000  0.0000
  o =  0.8272  v =  0.0000  0.0000  0.0000  0.0000  1.0000  0.0000  0.0000  0.0000  0.0000  0.0000      0.0000  0.0000  0.0000  0.0000  0.0000  0.0000  0.0000  0.0000  0.0000  0.0000
atom =   7  type =  2  l = 2
 
 onsite density matrix
 
spin component  1
 
  0.8272  0.0000  0.0000  0.0000  0.0000
  0.0000  0.8272  0.0000  0.0000  0.0000
  0.0000  0.0000  0.8272  0.0000  0.0000
  0.0000  0.0000  0.0000  0.8272  0.0000
  0.0000  0.0000  0.0000  0.0000  0.8272
 
spin component  2
 
  0.2256  0.0000  0.0000  0.0000  0.0000
  0.0000  0.2256  0.0000  0.0000  0.0000
  0.0000  0.0000  0.2256  0.0000  0.0000
  0.0000  0.0000  0.0000  0.2256  0.0000
  0.0000  0.0000  0.0000  0.0000  0.2256
 
 occupancies and eigenvectors
 
  o =  0.2256  v =  0.0000  0.0000  0.0000  0.0000  0.0000  0.0000  0.0000  1.0000  0.0000  0.0000      0.0000  0.0000  0.0000  0.0000  0.0000  0.0000  0.0000  0.0000  0.0000  0.0000
  o =  0.2256  v =  0.0000  0.0000  0.0000  0.0000  0.0000  1.0000  0.0000  0.0000  0.0000  0.0000      0.0000  0.0000  0.0000  0.0000  0.0000  0.0000  0.0000  0.0000  0.0000  0.0000
  o =  0.2256  v =  0.0000  0.0000  0.0000  0.0000  0.0000  0.0000  1.0000  0.0000  0.0000  0.0000      0.0000  0.0000  0.0000  0.0000  0.0000  0.0000  0.0000  0.0000  0.0000  0.0000
  o =  0.2256  v =  0.0000  0.0000  0.0000  0.0000  0.0000  0.0000  0.0000  0.0000  1.0000  0.0000      0.0000  0.0000  0.0000  0.0000  0.0000  0.0000  0.0000  0.0000  0.0000  0.0000
  o =  0.2256  v =  0.0000  0.0000  0.0000  0.0000  0.0000  0.0000  0.0000  0.0000  0.0000  1.0000      0.0000  0.0000  0.0000  0.0000  0.0000  0.0000  0.0000  0.0000  0.0000  0.0000
  o =  0.8272  v =  0.0000  1.0000  0.0000  0.0000  0.0000  0.0000  0.0000  0.0000  0.0000  0.0000      0.0000  0.0000  0.0000  0.0000  0.0000  0.0000  0.0000  0.0000  0.0000  0.0000
  o =  0.8272  v =  0.0000  0.0000  1.0000  0.0000  0.0000  0.0000  0.0000  0.0000  0.0000  0.0000      0.0000  0.0000  0.0000  0.0000  0.0000  0.0000  0.0000  0.0000  0.0000  0.0000
  o =  0.8272  v =  1.0000  0.0000  0.0000  0.0000  0.0000  0.0000  0.0000  0.0000  0.0000  0.0000      0.0000  0.0000  0.0000  0.0000  0.0000  0.0000  0.0000  0.0000  0.0000  0.0000
  o =  0.8272  v =  0.0000  0.0000  0.0000  1.0000  0.0000  0.0000  0.0000  0.0000  0.0000  0.0000      0.0000  0.0000  0.0000  0.0000  0.0000  0.0000  0.0000  0.0000  0.0000  0.0000
  o =  0.8272  v =  0.0000  0.0000  0.0000  0.0000  1.0000  0.0000  0.0000  0.0000  0.0000  0.0000      0.0000  0.0000  0.0000  0.0000  0.0000  0.0000  0.0000  0.0000  0.0000  0.0000
atom =   8  type =  3  l = 2
 
 onsite density matrix
 
spin component  1
 
  1.1008  0.0000  0.0000  0.0000  0.0000
  0.0000  1.1008  0.0000  0.0000  0.0000
  0.0000  0.0000  1.1008  0.0000  0.0000
  0.0000  0.0000  0.0000  1.1008  0.0000
  0.0000  0.0000  0.0000  0.0000  1.1008
 
spin component  2
 
  0.5927  0.0000  0.0000  0.0000  0.0000
  0.0000  0.5927  0.0000  0.0000  0.0000
  0.0000  0.0000  0.5927  0.0000  0.0000
  0.0000  0.0000  0.0000  0.5927  0.0000
  0.0000  0.0000  0.0000  0.0000  0.5927
 
 occupancies and eigenvectors
 
  o =  0.5927  v =  0.0000  0.0000  0.0000  0.0000  0.0000  1.0000  0.0000  0.0000  0.0000  0.0000      0.0000  0.0000  0.0000  0.0000  0.0000  0.0000  0.0000  0.0000  0.0000  0.0000
  o =  0.5927  v =  0.0000  0.0000  0.0000  0.0000  0.0000  0.0000  1.0000  0.0000  0.0000  0.0000      0.0000  0.0000  0.0000  0.0000  0.0000  0.0000  0.0000  0.0000  0.0000  0.0000
  o =  0.5927  v =  0.0000  0.0000  0.0000  0.0000  0.0000  0.0000  0.0000  1.0000  0.0000  0.0000      0.0000  0.0000  0.0000  0.0000  0.0000  0.0000  0.0000  0.0000  0.0000  0.0000
  o =  0.5927  v =  0.0000  0.0000  0.0000  0.0000  0.0000  0.0000  0.0000  0.0000  1.0000  0.0000      0.0000  0.0000  0.0000  0.0000  0.0000  0.0000  0.0000  0.0000  0.0000  0.0000
  o =  0.5927  v =  0.0000  0.0000  0.0000  0.0000  0.0000  0.0000  0.0000  0.0000  0.0000  1.0000      0.0000  0.0000  0.0000  0.0000  0.0000  0.0000  0.0000  0.0000  0.0000  0.0000
  o =  1.1008  v =  1.0000  0.0000  0.0000  0.0000  0.0000  0.0000  0.0000  0.0000  0.0000  0.0000      0.0000  0.0000  0.0000  0.0000  0.0000  0.0000  0.0000  0.0000  0.0000  0.0000
  o =  1.1008  v =  0.0000  1.0000  0.0000  0.0000  0.0000  0.0000  0.0000  0.0000  0.0000  0.0000      0.0000  0.0000  0.0000  0.0000  0.0000  0.0000  0.0000  0.0000  0.0000  0.0000
  o =  1.1008  v =  0.0000  0.0000  1.0000  0.0000  0.0000  0.0000  0.0000  0.0000  0.0000  0.0000      0.0000  0.0000  0.0000  0.0000  0.0000  0.0000  0.0000  0.0000  0.0000  0.0000
  o =  1.1008  v =  0.0000  0.0000  0.0000  1.0000  0.0000  0.0000  0.0000  0.0000  0.0000  0.0000      0.0000  0.0000  0.0000  0.0000  0.0000  0.0000  0.0000  0.0000  0.0000  0.0000
  o =  1.1008  v =  0.0000  0.0000  0.0000  0.0000  1.0000  0.0000  0.0000  0.0000  0.0000  0.0000      0.0000  0.0000  0.0000  0.0000  0.0000  0.0000  0.0000  0.0000  0.0000  0.0000
atom =   9  type =  4  l = 0
 
 onsite density matrix
 
spin component  1
 
  0.8190
 
spin component  2
 
  0.8190
 
 occupancies and eigenvectors
 
  o =  0.8190  v =  1.0000  0.0000      0.0000  0.0000
  o =  0.8190  v =  0.0000  1.0000      0.0000  0.0000
atom =  10  type =  4  l = 0
 
 onsite density matrix
 
spin component  1
 
  0.8190
 
spin component  2
 
  0.8190
 
 occupancies and eigenvectors
 
  o =  0.8190  v =  1.0000  0.0000      0.0000  0.0000
  o =  0.8190  v =  0.0000  1.0000      0.0000  0.0000
atom =  11  type =  4  l = 0
 
 onsite density matrix
 
spin component  1
 
  0.8190
 
spin component  2
 
  0.8190
 
 occupancies and eigenvectors
 
  o =  0.8190  v =  1.0000  0.0000      0.0000  0.0000
  o =  0.8190  v =  0.0000  1.0000      0.0000  0.0000
atom =  12  type =  4  l = 0
 
 onsite density matrix
 
spin component  1
 
  0.8190
 
spin component  2
 
  0.8190
 
 occupancies and eigenvectors
 
  o =  0.8190  v =  1.0000  0.0000      0.0000  0.0000
  o =  0.8190  v =  0.0000  1.0000      0.0000  0.0000
atom =  13  type =  4  l = 0
 
 onsite density matrix
 
spin component  1
 
  0.8190
 
spin component  2
 
  0.8190
 
 occupancies and eigenvectors
 
  o =  0.8190  v =  1.0000  0.0000      0.0000  0.0000
  o =  0.8190  v =  0.0000  1.0000      0.0000  0.0000
atom =  14  type =  4  l = 0
 
 onsite density matrix
 
spin component  1
 
  0.8190
 
spin component  2
 
  0.8190
 
 occupancies and eigenvectors
 
  o =  0.8190  v =  1.0000  0.0000      0.0000  0.0000
  o =  0.8190  v =  0.0000  1.0000      0.0000  0.0000
atom =  15  type =  4  l = 0
 
 onsite density matrix
 
spin component  1
 
  0.8190
 
spin component  2
 
  0.8190
 
 occupancies and eigenvectors
 
  o =  0.8190  v =  1.0000  0.0000      0.0000  0.0000
  o =  0.8190  v =  0.0000  1.0000      0.0000  0.0000
atom =  16  type =  4  l = 0
 
 onsite density matrix
 
spin component  1
 
  0.8190
 
spin component  2
 
  0.8190
 
 occupancies and eigenvectors
 
  o =  0.8190  v =  1.0000  0.0000      0.0000  0.0000
  o =  0.8190  v =  0.0000  1.0000      0.0000  0.0000
atom =  17  type =  4  l = 0
 
 onsite density matrix
 
spin component  1
 
  0.8190
 
spin component  2
 
  0.8190
 
 occupancies and eigenvectors
 
  o =  0.8190  v =  1.0000  0.0000      0.0000  0.0000
  o =  0.8190  v =  0.0000  1.0000      0.0000  0.0000
atom =  18  type =  4  l = 0
 
 onsite density matrix
 
spin component  1
 
  0.8190
 
spin component  2
 
  0.8190
 
 occupancies and eigenvectors
 
  o =  0.8190  v =  1.0000  0.0000      0.0000  0.0000
  o =  0.8190  v =  0.0000  1.0000      0.0000  0.0000
atom =  19  type =  4  l = 0
 
 onsite density matrix
 
spin component  1
 
  0.8190
 
spin component  2
 
  0.8190
 
 occupancies and eigenvectors
 
  o =  0.8190  v =  1.0000  0.0000      0.0000  0.0000
  o =  0.8190  v =  0.0000  1.0000      0.0000  0.0000
atom =  20  type =  4  l = 0
 
 onsite density matrix
 
spin component  1
 
  0.8190
 
spin component  2
 
  0.8190
 
 occupancies and eigenvectors
 
  o =  0.8190  v =  1.0000  0.0000      0.0000  0.0000
  o =  0.8190  v =  0.0000  1.0000      0.0000  0.0000
     EDDAV:  cpu time    1.8817: real time    1.8910
 BZINTS: Fermi energy: 28.609909;147.000000 electrons
         Band energy:2070.746814;  BLOECHL correction: -0.161427
       DOS:  cpu time    0.0254: real time    0.0282
    --------------------------------------------
      LOOP:  cpu time    1.9800: real time    1.9948

 eigenvalue-minimisations  :  4920
 total energy-change (2. order) : 0.2249859E+04  (-0.5311665E+04)
 number of electron     147.0000000 magnetization      15.0000000
 augmentation part      147.0000000 magnetization      15.0000000

 Free energy of the ion-electron system (eV)
  ---------------------------------------------------
  alpha Z        PSCENC =       649.02637745
  Ewald energy   TEWEN  =     -9889.28250053
  -Hartree energ DENC   =     -2024.73246064
  -exchange      EXHF   =         0.00000000
  -V(xc)+E(xc)   XCENC  =       459.38645836
  PAW double counting   =      8910.65829758    -8906.06727678
  entropy T*S    EENTRO =         0.00000000
  eigenvalues    EBANDS =      2070.74681413
  atomic energy  EATOM  =     10980.12334246
  Solvation  Ediel_sol  =         0.00000000
  ---------------------------------------------------
  free energy    TOTEN  =      2249.85905203 eV

  energy without entropy =     2249.85905203  energy(sigma->0) =     2249.85905203


--------------------------------------------------------------------------------------------------------




--------------------------------------- Iteration      1(   2)  ---------------------------------------


     EDDAV:  cpu time    1.9481: real time    1.9575
 BZINTS: Fermi energy: 15.622679;147.000000 electrons
         Band energy: 530.069098;  BLOECHL correction: -0.097705
       DOS:  cpu time    0.0246: real time    0.0247
    --------------------------------------------
      LOOP:  cpu time    1.9728: real time    1.9822

 eigenvalue-minimisations  :  5280
 total energy-change (2. order) :-0.1540678E+04  (-0.1391949E+04)
 number of electron     147.0000000 magnetization      15.0000000
 augmentation part      147.0000000 magnetization      15.0000000

 Free energy of the ion-electron system (eV)
  ---------------------------------------------------
  alpha Z        PSCENC =       649.02637745
  Ewald energy   TEWEN  =     -9889.28250053
  -Hartree energ DENC   =     -2024.73246064
  -exchange      EXHF   =         0.00000000
  -V(xc)+E(xc)   XCENC  =       459.38645836
  PAW double counting   =      8910.65829758    -8906.06727678
  entropy T*S    EENTRO =         0.00000000
  eigenvalues    EBANDS =       530.06909828
  atomic energy  EATOM  =     10980.12334246
  Solvation  Ediel_sol  =         0.00000000
  ---------------------------------------------------
  free energy    TOTEN  =       709.18133618 eV

  energy without entropy =      709.18133618  energy(sigma->0) =      709.18133618


--------------------------------------------------------------------------------------------------------




--------------------------------------- Iteration      1(   3)  ---------------------------------------


     EDDAV:  cpu time    2.1219: real time    2.1308
 BZINTS: Fermi energy: 11.854484;147.000000 electrons
         Band energy: -81.297621;  BLOECHL correction: -0.010318
       DOS:  cpu time    0.0251: real time    0.0251
    --------------------------------------------
      LOOP:  cpu time    2.1470: real time    2.1559

 eigenvalue-minimisations  :  5864
 total energy-change (2. order) :-0.6113667E+03  (-0.5621553E+03)
 number of electron     147.0000000 magnetization      15.0000000
 augmentation part      147.0000000 magnetization      15.0000000

 Free energy of the ion-electron system (eV)
  ---------------------------------------------------
  alpha Z        PSCENC =       649.02637745
  Ewald energy   TEWEN  =     -9889.28250053
  -Hartree energ DENC   =     -2024.73246064
  -exchange      EXHF   =         0.00000000
  -V(xc)+E(xc)   XCENC  =       459.38645836
  PAW double counting   =      8910.65829758    -8906.06727678
  entropy T*S    EENTRO =         0.00000000
  eigenvalues    EBANDS =       -81.29762092
  atomic energy  EATOM  =     10980.12334246
  Solvation  Ediel_sol  =         0.00000000
  ---------------------------------------------------
  free energy    TOTEN  =        97.81461698 eV

  energy without entropy =       97.81461698  energy(sigma->0) =       97.81461698


--------------------------------------------------------------------------------------------------------




--------------------------------------- Iteration      1(   4)  ---------------------------------------


     EDDAV:  cpu time    2.6381: real time    2.6492
 BZINTS: Fermi energy: 11.201185;147.000000 electrons
         Band energy:-311.052689;  BLOECHL correction: -0.012594
       DOS:  cpu time    0.0270: real time    0.0271
    --------------------------------------------
      LOOP:  cpu time    2.6651: real time    2.6763

 eigenvalue-minimisations  :  7600
 total energy-change (2. order) :-0.2297551E+03  (-0.2183929E+03)
 number of electron     147.0000000 magnetization      15.0000000
 augmentation part      147.0000000 magnetization      15.0000000

 Free energy of the ion-electron system (eV)
  ---------------------------------------------------
  alpha Z        PSCENC =       649.02637745
  Ewald energy   TEWEN  =     -9889.28250053
  -Hartree energ DENC   =     -2024.73246064
  -exchange      EXHF   =         0.00000000
  -V(xc)+E(xc)   XCENC  =       459.38645836
  PAW double counting   =      8910.65829758    -8906.06727678
  entropy T*S    EENTRO =         0.00000000
  eigenvalues    EBANDS =      -311.05268857
  atomic energy  EATOM  =     10980.12334246
  Solvation  Ediel_sol  =         0.00000000
  ---------------------------------------------------
  free energy    TOTEN  =      -131.94045067 eV

  energy without entropy =     -131.94045067  energy(sigma->0) =     -131.94045067


--------------------------------------------------------------------------------------------------------




--------------------------------------- Iteration      1(   5)  ---------------------------------------


     EDDAV:  cpu time    2.8294: real time    2.8404
 BZINTS: Fermi energy: 10.815506;147.000000 electrons
         Band energy:-353.780647;  BLOECHL correction: -0.090065
       DOS:  cpu time    0.0261: real time    0.0261
    CHARGE:  cpu time    0.1271: real time    0.1276
    MIXING:  cpu time    0.0025: real time    0.0026
    --------------------------------------------
      LOOP:  cpu time    2.9852: real time    2.9967

 eigenvalue-minimisations  :  8256
 total energy-change (2. order) :-0.4272796E+02  (-0.4113928E+02)
 number of electron     147.0000032 magnetization      13.2226857
 augmentation part       16.1451171 magnetization       8.9496172

 Broyden mixing:
  rms(total) = 0.55633E+01    rms(broyden)= 0.55627E+01
  rms(prec ) = 0.70701E+01
  weight for this iteration     100.00

 Free energy of the ion-electron system (eV)
  ---------------------------------------------------
  alpha Z        PSCENC =       649.02637745
  Ewald energy   TEWEN  =     -9889.28250053
  -Hartree energ DENC   =     -2024.73246064
  -exchange      EXHF   =         0.00000000
  -V(xc)+E(xc)   XCENC  =       459.38645836
  PAW double counting   =      8910.65829758    -8906.06727678
  entropy T*S    EENTRO =         0.00000000
  eigenvalues    EBANDS =      -353.78064668
  atomic energy  EATOM  =     10980.12334246
  Solvation  Ediel_sol  =         0.00000000
  ---------------------------------------------------
  free energy    TOTEN  =      -174.66840877 eV

  energy without entropy =     -174.66840877  energy(sigma->0) =     -174.66840877


--------------------------------------------------------------------------------------------------------




--------------------------------------- Iteration      1(   6)  ---------------------------------------


    POTLOK:  cpu time    0.0557: real time    0.0576
    SETDIJ:  cpu time    0.0120: real time    0.0120
atom =   1  type =  1  l = 0
 
 onsite density matrix
 
spin component  1
 
  1.0569
 
spin component  2
 
  1.0567
 
 occupancies and eigenvectors
 
  o =  1.0567  v =  0.0000  1.0000      0.0000  0.0000
  o =  1.0569  v =  1.0000  0.0000      0.0000  0.0000
atom =   2  type =  1  l = 0
 
 onsite density matrix
 
spin component  1
 
  1.0569
 
spin component  2
 
  1.0567
 
 occupancies and eigenvectors
 
  o =  1.0567  v =  0.0000  1.0000      0.0000  0.0000
  o =  1.0569  v =  1.0000  0.0000      0.0000  0.0000
atom =   3  type =  1  l = 0
 
 onsite density matrix
 
spin component  1
 
  1.0569
 
spin component  2
 
  1.0567
 
 occupancies and eigenvectors
 
  o =  1.0567  v =  0.0000  1.0000      0.0000  0.0000
  o =  1.0569  v =  1.0000  0.0000      0.0000  0.0000
atom =   4  type =  1  l = 0
 
 onsite density matrix
 
spin component  1
 
  1.0569
 
spin component  2
 
  1.0567
 
 occupancies and eigenvectors
 
  o =  1.0567  v =  0.0000  1.0000      0.0000  0.0000
  o =  1.0569  v =  1.0000  0.0000      0.0000  0.0000
atom =   5  type =  2  l = 2
 
 onsite density matrix
 
spin component  1
 
  0.9733 -0.0000 -0.0000 -0.0000 -0.0000
 -0.0000  0.9585 -0.0000 -0.0000  0.0000
 -0.0000 -0.0000  0.4659  0.0000 -0.0153
 -0.0000 -0.0000  0.0000  0.9818 -0.0000
 -0.0000  0.0000 -0.0153 -0.0000  0.3989
 
spin component  2
 
  0.0168  0.0000  0.0000  0.0000 -0.0000
  0.0000  0.0272  0.0000  0.0000 -0.0000
  0.0000  0.0000  0.3723  0.0000  0.0116
  0.0000  0.0000  0.0000  0.0084  0.0000
 -0.0000 -0.0000  0.0116  0.0000  0.4147
 
 occupancies and eigenvectors
 
  o =  0.0084  v =  0.0000  0.0000  0.0000  0.0000  0.0000  0.0000 -0.0000  0.0000 -1.0000 -0.0000      0.0000  0.0000  0.0000  0.0000  0.0000  0.0000  0.0000  0.0000  0.0000  0.0000
  o =  0.0168  v =  0.0000  0.0000  0.0000  0.0000  0.0000  1.0000 -0.0000 -0.0000  0.0000  0.0000      0.0000  0.0000  0.0000  0.0000  0.0000  0.0000  0.0000  0.0000  0.0000  0.0000
  o =  0.0272  v =  0.0000  0.0000  0.0000  0.0000  0.0000  0.0000  1.0000 -0.0000  0.0000  0.0000      0.0000  0.0000  0.0000  0.0000  0.0000  0.0000  0.0000  0.0000  0.0000  0.0000
  o =  0.3693  v =  0.0000  0.0000  0.0000  0.0000  0.0000 -0.0000 -0.0000 -0.9687  0.0000  0.2482      0.0000  0.0000  0.0000  0.0000  0.0000  0.0000  0.0000  0.0000  0.0000  0.0000
  o =  0.3956  v = -0.0000  0.0000 -0.2120  0.0000 -0.9773  0.0000  0.0000  0.0000  0.0000  0.0000      0.0000  0.0000  0.0000  0.0000  0.0000  0.0000  0.0000  0.0000  0.0000  0.0000
  o =  0.4177  v =  0.0000  0.0000  0.0000  0.0000  0.0000  0.0000  0.0000  0.2482  0.0000  0.9687      0.0000  0.0000  0.0000  0.0000  0.0000  0.0000  0.0000  0.0000  0.0000  0.0000
  o =  0.4692  v = -0.0000 -0.0000 -0.9773 -0.0000  0.2120  0.0000  0.0000  0.0000  0.0000  0.0000      0.0000  0.0000  0.0000  0.0000  0.0000  0.0000  0.0000  0.0000  0.0000  0.0000
  o =  0.9585  v =  0.0000  1.0000 -0.0000 -0.0000  0.0000  0.0000  0.0000  0.0000  0.0000  0.0000      0.0000  0.0000  0.0000  0.0000  0.0000  0.0000  0.0000  0.0000  0.0000  0.0000
  o =  0.9733  v = -1.0000  0.0000  0.0000 -0.0000  0.0000  0.0000  0.0000  0.0000  0.0000  0.0000      0.0000  0.0000  0.0000  0.0000  0.0000  0.0000  0.0000  0.0000  0.0000  0.0000
  o =  0.9818  v =  0.0000 -0.0000 -0.0000 -1.0000  0.0000  0.0000  0.0000  0.0000  0.0000  0.0000      0.0000  0.0000  0.0000  0.0000  0.0000  0.0000  0.0000  0.0000  0.0000  0.0000
atom =   6  type =  2  l = 2
 
 onsite density matrix
 
spin component  1
 
  0.9798  0.0000  0.0000 -0.0000  0.0000
  0.0000  0.9661 -0.0000  0.0000  0.0000
  0.0000 -0.0000  0.3689  0.0000  0.0017
 -0.0000  0.0000  0.0000  0.9626  0.0000
  0.0000  0.0000  0.0017  0.0000  0.4817
 
spin component  2
 
  0.0091  0.0000  0.0000  0.0000  0.0000
  0.0000  0.0240  0.0000  0.0000 -0.0000
  0.0000  0.0000  0.4360  0.0000 -0.0038
  0.0000  0.0000  0.0000  0.0266  0.0000
  0.0000 -0.0000 -0.0038  0.0000  0.3565
 
 occupancies and eigenvectors
 
  o =  0.0091  v =  0.0000  0.0000  0.0000  0.0000  0.0000 -1.0000  0.0000  0.0000  0.0000  0.0000      0.0000  0.0000  0.0000  0.0000  0.0000  0.0000  0.0000  0.0000  0.0000  0.0000
  o =  0.0240  v =  0.0000  0.0000  0.0000  0.0000  0.0000  0.0000  1.0000 -0.0000  0.0000  0.0000      0.0000  0.0000  0.0000  0.0000  0.0000  0.0000  0.0000  0.0000  0.0000  0.0000
  o =  0.0266  v =  0.0000  0.0000  0.0000  0.0000  0.0000 -0.0000  0.0000  0.0000 -1.0000  0.0000      0.0000  0.0000  0.0000  0.0000  0.0000  0.0000  0.0000  0.0000  0.0000  0.0000
  o =  0.3564  v =  0.0000  0.0000  0.0000  0.0000  0.0000  0.0000 -0.0000  0.0474  0.0000  0.9989      0.0000  0.0000  0.0000  0.0000  0.0000  0.0000  0.0000  0.0000  0.0000  0.0000
  o =  0.3689  v =  0.0000  0.0000  0.9999  0.0000 -0.0153  0.0000  0.0000  0.0000  0.0000  0.0000      0.0000  0.0000  0.0000  0.0000  0.0000  0.0000  0.0000  0.0000  0.0000  0.0000
  o =  0.4362  v =  0.0000  0.0000  0.0000  0.0000  0.0000  0.0000 -0.0000 -0.9989  0.0000  0.0474      0.0000  0.0000  0.0000  0.0000  0.0000  0.0000  0.0000  0.0000  0.0000  0.0000
  o =  0.4818  v =  0.0000  0.0000 -0.0153  0.0000 -0.9999  0.0000  0.0000  0.0000  0.0000  0.0000      0.0000  0.0000  0.0000  0.0000  0.0000  0.0000  0.0000  0.0000  0.0000  0.0000
  o =  0.9626  v = -0.0000  0.0000  0.0000 -1.0000  0.0000  0.0000  0.0000  0.0000  0.0000  0.0000      0.0000  0.0000  0.0000  0.0000  0.0000  0.0000  0.0000  0.0000  0.0000  0.0000
  o =  0.9661  v =  0.0000  1.0000 -0.0000  0.0000  0.0000  0.0000  0.0000  0.0000  0.0000  0.0000      0.0000  0.0000  0.0000  0.0000  0.0000  0.0000  0.0000  0.0000  0.0000  0.0000
  o =  0.9798  v = -1.0000  0.0000  0.0000  0.0000  0.0000  0.0000  0.0000  0.0000  0.0000  0.0000      0.0000  0.0000  0.0000  0.0000  0.0000  0.0000  0.0000  0.0000  0.0000  0.0000
atom =   7  type =  2  l = 2
 
 onsite density matrix
 
spin component  1
 
  0.9733 -0.0000 -0.0000 -0.0000 -0.0000
 -0.0000  0.9585 -0.0000 -0.0000  0.0000
 -0.0000 -0.0000  0.4659 -0.0000 -0.0153
 -0.0000 -0.0000 -0.0000  0.9818 -0.0000
 -0.0000  0.0000 -0.0153 -0.0000  0.3989
 
spin component  2
 
  0.0168  0.0000  0.0000  0.0000  0.0000
  0.0000  0.0272  0.0000  0.0000 -0.0000
  0.0000  0.0000  0.3723  0.0000  0.0116
  0.0000  0.0000  0.0000  0.0084  0.0000
  0.0000 -0.0000  0.0116  0.0000  0.4147
 
 occupancies and eigenvectors
 
  o =  0.0084  v =  0.0000  0.0000  0.0000  0.0000  0.0000  0.0000 -0.0000 -0.0000 -1.0000  0.0000      0.0000  0.0000  0.0000  0.0000  0.0000  0.0000  0.0000  0.0000  0.0000  0.0000
  o =  0.0168  v =  0.0000  0.0000  0.0000  0.0000  0.0000  1.0000 -0.0000 -0.0000  0.0000 -0.0000      0.0000  0.0000  0.0000  0.0000  0.0000  0.0000  0.0000  0.0000  0.0000  0.0000
  o =  0.0272  v =  0.0000  0.0000  0.0000  0.0000  0.0000  0.0000  1.0000 -0.0000 -0.0000  0.0000      0.0000  0.0000  0.0000  0.0000  0.0000  0.0000  0.0000  0.0000  0.0000  0.0000
  o =  0.3693  v =  0.0000  0.0000  0.0000  0.0000  0.0000 -0.0000 -0.0000 -0.9687 -0.0000  0.2482      0.0000  0.0000  0.0000  0.0000  0.0000  0.0000  0.0000  0.0000  0.0000  0.0000
  o =  0.3956  v = -0.0000  0.0000 -0.2120  0.0000 -0.9773  0.0000  0.0000  0.0000  0.0000  0.0000      0.0000  0.0000  0.0000  0.0000  0.0000  0.0000  0.0000  0.0000  0.0000  0.0000
  o =  0.4177  v =  0.0000  0.0000  0.0000  0.0000  0.0000  0.0000  0.0000  0.2482 -0.0000  0.9687      0.0000  0.0000  0.0000  0.0000  0.0000  0.0000  0.0000  0.0000  0.0000  0.0000
  o =  0.4692  v = -0.0000 -0.0000 -0.9773 -0.0000  0.2120  0.0000  0.0000  0.0000  0.0000  0.0000      0.0000  0.0000  0.0000  0.0000  0.0000  0.0000  0.0000  0.0000  0.0000  0.0000
  o =  0.9585  v =  0.0000  1.0000 -0.0000  0.0000  0.0000  0.0000  0.0000  0.0000  0.0000  0.0000      0.0000  0.0000  0.0000  0.0000  0.0000  0.0000  0.0000  0.0000  0.0000  0.0000
  o =  0.9733  v = -1.0000  0.0000  0.0000 -0.0000  0.0000  0.0000  0.0000  0.0000  0.0000  0.0000      0.0000  0.0000  0.0000  0.0000  0.0000  0.0000  0.0000  0.0000  0.0000  0.0000
  o =  0.9818  v =  0.0000  0.0000 -0.0000 -1.0000  0.0000  0.0000  0.0000  0.0000  0.0000  0.0000      0.0000  0.0000  0.0000  0.0000  0.0000  0.0000  0.0000  0.0000  0.0000  0.0000
atom =   8  type =  3  l = 2
 
 onsite density matrix
 
spin component  1
 
  0.8743  0.0000  0.0000 -0.0000  0.0000
  0.0000  0.8721 -0.0000  0.0000  0.0000
  0.0000 -0.0000  1.3120  0.0000 -0.0041
 -0.0000  0.0000  0.0000  0.8769  0.0000
  0.0000  0.0000 -0.0041  0.0000  1.3146
 
spin component  2
 
  0.8421  0.0000  0.0000 -0.0000  0.0000
  0.0000  0.8452 -0.0000  0.0000 -0.0000
  0.0000 -0.0000  0.1796  0.0000 -0.0005
 -0.0000  0.0000  0.0000  0.8386  0.0000
  0.0000 -0.0000 -0.0005  0.0000  0.1839
 
 occupancies and eigenvectors
 
  o =  0.1796  v =  0.0000  0.0000  0.0000  0.0000  0.0000  0.0000  0.0000  0.9929  0.0000  0.1186      0.0000  0.0000  0.0000  0.0000  0.0000  0.0000  0.0000  0.0000  0.0000  0.0000
  o =  0.1839  v =  0.0000  0.0000  0.0000  0.0000  0.0000  0.0000  0.0000 -0.1186  0.0000  0.9929      0.0000  0.0000  0.0000  0.0000  0.0000  0.0000  0.0000  0.0000  0.0000  0.0000
  o =  0.8386  v =  0.0000  0.0000  0.0000  0.0000  0.0000 -0.0000  0.0000  0.0000 -1.0000  0.0000      0.0000  0.0000  0.0000  0.0000  0.0000  0.0000  0.0000  0.0000  0.0000  0.0000
  o =  0.8421  v =  0.0000  0.0000  0.0000  0.0000  0.0000 -1.0000  0.0000  0.0000  0.0000  0.0000      0.0000  0.0000  0.0000  0.0000  0.0000  0.0000  0.0000  0.0000  0.0000  0.0000
  o =  0.8452  v =  0.0000  0.0000  0.0000  0.0000  0.0000  0.0000 -1.0000  0.0000  0.0000  0.0000      0.0000  0.0000  0.0000  0.0000  0.0000  0.0000  0.0000  0.0000  0.0000  0.0000
  o =  0.8721  v =  0.0000 -1.0000 -0.0000  0.0000  0.0000  0.0000  0.0000  0.0000  0.0000  0.0000      0.0000  0.0000  0.0000  0.0000  0.0000  0.0000  0.0000  0.0000  0.0000  0.0000
  o =  0.8743  v = -1.0000  0.0000  0.0000 -0.0000  0.0000  0.0000  0.0000  0.0000  0.0000  0.0000      0.0000  0.0000  0.0000  0.0000  0.0000  0.0000  0.0000  0.0000  0.0000  0.0000
  o =  0.8769  v = -0.0000  0.0000  0.0000  1.0000  0.0000  0.0000  0.0000  0.0000  0.0000  0.0000      0.0000  0.0000  0.0000  0.0000  0.0000  0.0000  0.0000  0.0000  0.0000  0.0000
  o =  1.3090  v =  0.0000 -0.0000 -0.8089  0.0000 -0.5879  0.0000  0.0000  0.0000  0.0000  0.0000      0.0000  0.0000  0.0000  0.0000  0.0000  0.0000  0.0000  0.0000  0.0000  0.0000
  o =  1.3176  v =  0.0000 -0.0000  0.5879  0.0000 -0.8089  0.0000  0.0000  0.0000  0.0000  0.0000      0.0000  0.0000  0.0000  0.0000  0.0000  0.0000  0.0000  0.0000  0.0000  0.0000
atom =   9  type =  4  l = 0
 
 onsite density matrix
 
spin component  1
 
  0.8148
 
spin component  2
 
  0.8171
 
 occupancies and eigenvectors
 
  o =  0.8148  v =  1.0000  0.0000      0.0000  0.0000
  o =  0.8171  v =  0.0000  1.0000      0.0000  0.0000
atom =  10  type =  4  l = 0
 
 onsite density matrix
 
spin component  1
 
  0.8161
 
spin component  2
 
  0.8147
 
 occupancies and eigenvectors
 
  o =  0.8147  v =  0.0000  1.0000      0.0000  0.0000
  o =  0.8161  v =  1.0000  0.0000      0.0000  0.0000
atom =  11  type =  4  l = 0
 
 onsite density matrix
 
spin component  1
 
  0.8148
 
spin component  2
 
  0.8171
 
 occupancies and eigenvectors
 
  o =  0.8148  v =  1.0000  0.0000      0.0000  0.0000
  o =  0.8171  v =  0.0000  1.0000      0.0000  0.0000
atom =  12  type =  4  l = 0
 
 onsite density matrix
 
spin component  1
 
  0.8161
 
spin component  2
 
  0.8147
 
 occupancies and eigenvectors
 
  o =  0.8147  v =  0.0000  1.0000      0.0000  0.0000
  o =  0.8161  v =  1.0000  0.0000      0.0000  0.0000
atom =  13  type =  4  l = 0
 
 onsite density matrix
 
spin component  1
 
  0.8133
 
spin component  2
 
  0.8178
 
 occupancies and eigenvectors
 
  o =  0.8133  v =  1.0000  0.0000      0.0000  0.0000
  o =  0.8178  v =  0.0000  1.0000      0.0000  0.0000
atom =  14  type =  4  l = 0
 
 onsite density matrix
 
spin component  1
 
  0.8133
 
spin component  2
 
  0.8178
 
 occupancies and eigenvectors
 
  o =  0.8133  v =  1.0000  0.0000      0.0000  0.0000
  o =  0.8178  v =  0.0000  1.0000      0.0000  0.0000
atom =  15  type =  4  l = 0
 
 onsite density matrix
 
spin component  1
 
  0.8163
 
spin component  2
 
  0.8143
 
 occupancies and eigenvectors
 
  o =  0.8143  v =  0.0000  1.0000      0.0000  0.0000
  o =  0.8163  v =  1.0000  0.0000      0.0000  0.0000
atom =  16  type =  4  l = 0
 
 onsite density matrix
 
spin component  1
 
  0.8163
 
spin component  2
 
  0.8143
 
 occupancies and eigenvectors
 
  o =  0.8143  v =  0.0000  1.0000      0.0000  0.0000
  o =  0.8163  v =  1.0000  0.0000      0.0000  0.0000
atom =  17  type =  4  l = 0
 
 onsite density matrix
 
spin component  1
 
  0.8132
 
spin component  2
 
  0.8179
 
 occupancies and eigenvectors
 
  o =  0.8132  v =  1.0000  0.0000      0.0000  0.0000
  o =  0.8179  v =  0.0000  1.0000      0.0000  0.0000
atom =  18  type =  4  l = 0
 
 onsite density matrix
 
spin component  1
 
  0.8133
 
spin component  2
 
  0.8178
 
 occupancies and eigenvectors
 
  o =  0.8133  v =  1.0000  0.0000      0.0000  0.0000
  o =  0.8178  v =  0.0000  1.0000      0.0000  0.0000
atom =  19  type =  4  l = 0
 
 onsite density matrix
 
spin component  1
 
  0.8132
 
spin component  2
 
  0.8179
 
[...]
 -0.003   0.006   0.002  -0.026   0.000   0.001   0.010   0.000  -0.000  -0.001   0.005  -0.000  -0.001   0.000   0.001  -0.002
  0.000   0.000   0.000   0.000   0.016   0.000   0.000  -0.006  -0.030   0.000   0.000  -0.043   0.000   0.014  -0.000   0.000
 -0.001   0.003   0.003  -0.000   0.000  -0.000   0.000   0.000  -0.000  -0.042   0.002   0.000  -0.068   0.000   0.019  -0.001
  0.000   0.000   0.000   0.000  -0.020   0.000   0.000   0.007  -0.025  -0.000   0.000  -0.030  -0.000   0.012   0.000   0.000
  0.002  -0.001  -0.026  -0.001   0.000   0.010   0.001   0.000   0.000  -0.047   0.039   0.000  -0.016  -0.000   0.020  -0.017
 -0.000  -0.000   0.000   0.000   0.002  -0.000   0.000   0.002  -0.019   0.000   0.000   0.020  -0.000   0.007   0.000   0.000
  0.002  -0.005  -0.022   0.006   0.000   0.009  -0.000  -0.000   0.000   0.069  -0.045  -0.000   0.034   0.000  -0.030   0.020
  0.004  -0.008  -0.002   0.036   0.000  -0.001  -0.013  -0.000  -0.000   0.001  -0.008  -0.000   0.001   0.000  -0.001   0.003
  0.000   0.000   0.000   0.000  -0.022   0.000  -0.000   0.008   0.043   0.000   0.000   0.059   0.000  -0.019   0.000   0.000
  0.001  -0.005  -0.005   0.001  -0.000   0.001  -0.000  -0.000  -0.000   0.061  -0.004  -0.000   0.097   0.000  -0.026   0.001
 -0.000   0.000   0.000   0.000   0.027   0.000   0.000  -0.010   0.035   0.000   0.000   0.042   0.000  -0.016   0.000   0.000
 total augmentation occupancy for first ion, spin component:           2
 -0.000  -0.000  -0.000  -0.000   0.000  -0.000  -0.000   0.000   0.000  -0.000  -0.000   0.000   0.000   0.000   0.000   0.000
 -0.000   0.001  -0.000  -0.000   0.000   0.000  -0.000   0.000  -0.000  -0.002  -0.001  -0.000   0.001   0.000   0.001   0.000
 -0.000  -0.000   0.000  -0.000   0.000  -0.000   0.000  -0.000  -0.000  -0.000  -0.000  -0.000   0.000   0.000   0.000   0.000
 -0.000  -0.000  -0.000   0.000   0.000   0.000  -0.000   0.000   0.000   0.000   0.000   0.000  -0.000   0.000  -0.000   0.000
  0.000   0.000   0.000   0.000   0.000   0.000  -0.000  -0.000   0.000   0.000   0.000  -0.000  -0.000   0.000   0.000   0.000
 -0.000   0.000  -0.000   0.000   0.000   0.000  -0.000   0.000   0.000   0.000   0.000  -0.000  -0.000   0.000  -0.000  -0.000
 -0.000  -0.000   0.000  -0.000  -0.000  -0.000   0.000   0.000   0.000  -0.000  -0.000   0.000   0.000   0.000   0.000   0.000
  0.000   0.000  -0.000   0.000  -0.000   0.000   0.000   0.000  -0.000   0.000   0.000   0.000   0.000   0.000  -0.000   0.000
  0.000  -0.000  -0.000   0.000   0.000   0.000   0.000  -0.000  -0.001   0.000  -0.000  -0.008  -0.000   0.001   0.000   0.000
 -0.000  -0.002  -0.000   0.000   0.000   0.000  -0.000   0.000   0.000  -0.004   0.004   0.000  -0.007  -0.000   0.002  -0.001
 -0.000  -0.001  -0.000   0.000   0.000   0.000  -0.000   0.000  -0.000   0.004   0.030   0.000  -0.000  -0.000  -0.001  -0.011
  0.000  -0.000   0.000   0.000  -0.000  -0.000   0.000   0.000  -0.008   0.000   0.000  -0.002   0.000   0.003   0.000   0.000
  0.000   0.001   0.000  -0.000  -0.000  -0.000   0.000   0.000   0.000  -0.007  -0.000   0.000   0.029   0.000   0.002   0.000
  0.000   0.000   0.000   0.000   0.000   0.000   0.000   0.000   0.001  -0.000  -0.000   0.003   0.000  -0.001   0.000   0.000
  0.000   0.001   0.000  -0.000   0.000  -0.000   0.000  -0.000   0.000   0.002  -0.001   0.000   0.002   0.000  -0.001   0.000
  0.000   0.000   0.000   0.000   0.000  -0.000   0.000   0.000   0.000  -0.001  -0.011   0.000   0.000   0.000   0.000   0.004
 -0.000  -0.000  -0.000   0.000  -0.000   0.000   0.000  -0.000   0.003   0.000   0.000   0.002   0.000  -0.001   0.000   0.000
 -0.000  -0.000   0.000  -0.000   0.000   0.000  -0.000   0.000  -0.000   0.002   0.000  -0.000  -0.010  -0.000  -0.001  -0.000
  0.000   0.001   0.000   0.000  -0.000   0.001   0.000   0.000  -0.000  -0.002   0.001   0.000  -0.001   0.000   0.000  -0.000
  0.000   0.000  -0.000   0.000   0.000   0.000   0.000   0.000  -0.002   0.000   0.000   0.002  -0.000   0.000   0.000   0.000
 -0.000   0.000   0.000  -0.000  -0.000   0.000  -0.000   0.000   0.000  -0.000  -0.001   0.000   0.001   0.000  -0.000   0.000
  0.000   0.001  -0.000  -0.001  -0.000  -0.000  -0.001  -0.000   0.000  -0.001   0.001   0.000   0.000  -0.000   0.000  -0.000
  0.000  -0.000   0.000  -0.000   0.000  -0.000   0.000   0.000   0.001   0.000  -0.000  -0.000   0.000  -0.000  -0.000   0.000
 -0.000  -0.000   0.000  -0.000   0.000   0.000  -0.000   0.000   0.000   0.001   0.000   0.000   0.002  -0.000  -0.000  -0.000
  0.000   0.000  -0.000   0.000  -0.000   0.000   0.000  -0.001  -0.001   0.000   0.000   0.001   0.000   0.000  -0.000   0.000
 -0.000  -0.002   0.000   0.000  -0.000  -0.001  -0.000   0.000   0.000   0.003  -0.001   0.000   0.002  -0.000  -0.001   0.000
 -0.000   0.000   0.000   0.000   0.000   0.000   0.000  -0.001   0.003  -0.000   0.000  -0.004   0.000  -0.001   0.000   0.000
  0.000  -0.000   0.000   0.000   0.000  -0.001   0.000   0.000  -0.000   0.000   0.003   0.000  -0.001   0.000   0.000  -0.001
  0.000  -0.001  -0.000  -0.000   0.000   0.000   0.001  -0.000  -0.000   0.003  -0.002  -0.000  -0.000   0.000  -0.001   0.000
 -0.000  -0.000   0.000  -0.000   0.000   0.000   0.000  -0.001  -0.002  -0.000  -0.000   0.000   0.000   0.001  -0.000   0.000
  0.000   0.001  -0.000  -0.000   0.000  -0.000   0.000  -0.000   0.000  -0.002  -0.000   0.000  -0.004  -0.000   0.001   0.000
  0.000   0.000   0.000   0.000  -0.000   0.000   0.000   0.001   0.001  -0.000   0.000  -0.002   0.000  -0.000   0.000   0.000


------------------------ aborting loop because EDIFF is reached ----------------------------------------


 


 total charge     
 
# of ion       s       p       d       f       tot
--------------------------------------------------
    1        1.999   5.696   0.483   0.187   8.365
    2        1.999   5.696   0.483   0.187   8.365
    3        1.999   5.696   0.482   0.187   8.365
    4        1.999   5.696   0.482   0.187   8.365
    5        0.327   0.504   4.883   0.000   5.715
    6        0.325   0.499   4.890   0.000   5.714
    7        0.327   0.504   4.884   0.000   5.715
    8        0.390   0.560   8.333   0.000   9.284
    9        1.564   3.455   0.000   0.000   5.019
   10        1.560   3.462   0.000   0.000   5.022
   11        1.564   3.457   0.000   0.000   5.021
   12        1.560   3.462   0.000   0.000   5.022
   13        1.565   3.455   0.000   0.000   5.020
   14        1.565   3.455   0.000   0.000   5.020
   15        1.560   3.461   0.000   0.000   5.021
   16        1.560   3.461   0.000   0.000   5.021
   17        1.564   3.456   0.000   0.000   5.020
   18        1.562   3.463   0.000   0.000   5.026
   19        1.564   3.456   0.000   0.000   5.020
   20        1.554   3.463   0.000   0.000   5.017
--------------------------------------------------
tot         28.109  66.357  24.921   0.747 120.135

 


 magnetization (x)
 
# of ion       s       p       d       f       tot
--------------------------------------------------
    1        0.000   0.001   0.010   0.005   0.016
    2        0.000   0.001   0.010   0.005   0.016
    3        0.000   0.001   0.010   0.005   0.016
    4        0.000   0.001   0.010   0.005   0.016
    5        0.024   0.028   3.636   0.000   3.688
    6        0.024   0.029   3.660   0.000   3.713
    7        0.024   0.028   3.637   0.000   3.688
    8        0.011   0.004   1.717   0.000   1.732
    9        0.005  -0.040   0.000   0.000  -0.035
   10        0.005  -0.006   0.000   0.000  -0.001
   11        0.005  -0.035   0.000   0.000  -0.030
   12        0.005  -0.006   0.000   0.000  -0.001
   13        0.006  -0.032   0.000   0.000  -0.026
   14        0.006  -0.032   0.000   0.000  -0.026
   15        0.005  -0.005   0.000   0.000   0.001
   16        0.005  -0.005   0.000   0.000   0.001
   17        0.006  -0.037   0.000   0.000  -0.031
   18        0.004  -0.028   0.000   0.000  -0.023
   19        0.006  -0.037   0.000   0.000  -0.031
   20        0.006   0.036   0.000   0.000   0.043
--------------------------------------------------
tot          0.148  -0.136  12.689   0.021  12.722

 
    CHARGE:  cpu time    0.0998: real time    0.1001
    FORLOC:  cpu time    0.0068: real time    0.0069
    FORNL :  cpu time    0.5485: real time    0.5505
    STRESS:  cpu time    1.7605: real time    1.7660
    FORCOR:  cpu time    0.0626: real time    0.0628
    FORHAR:  cpu time    0.0125: real time    0.0126
    MIXING:  cpu time    0.0039: real time    0.0039
    OFIELD:  cpu time    0.0001: real time    0.0001

  FORCE on cell =-STRESS in cart. coord.  units (eV):
  Direction    XX          YY          ZZ          XY          YZ          ZX
  --------------------------------------------------------------------------------------
  Alpha Z   649.02638   649.02638   649.02638
  Ewald   -3261.99996 -3317.02372 -3310.28686    -0.00000     0.00000     0.00000
  Hartree   732.81972   680.36925   681.62896     0.00000    -0.00001    -0.00000
  E(xc)    -677.27963  -677.33451  -677.32030     0.00000    -0.00002    -0.00000
  Local    -442.82962  -333.02381  -338.60687    -0.00000    -0.00021    -0.00000
  n-local   264.41312   264.74990   265.03552     0.07735     0.25439    -0.38347
  augment   182.14783   180.67144   179.92424    -0.00000     0.00081     0.00000
  Kinetic  2555.54042  2553.17511  2550.96736     0.02517    -0.70273     1.15908
  Fock        0.00000     0.00000     0.00000     0.00000     0.00000     0.00000
  -------------------------------------------------------------------------------------
  Total       1.83825     0.61004     0.36843     0.00000    -0.00000     0.00000
  in kB      12.37165     4.10565     2.47957     0.00000    -0.00000     0.00000
  external pressure =        6.32 kB  Pullay stress =        0.00 kB


 VOLUME and BASIS-vectors are now :
 -----------------------------------------------------------------------------
  energy-cutoff  :      520.00
  volume of cell :      238.06
      direct lattice vectors                 reciprocal lattice vectors
    -3.904042786  0.000000000  0.000000000    -0.256144734  0.000000000  0.000000000
     0.000000000  0.000000000  7.800819619     0.000000000  0.063964284  0.128191658
     0.000000000  7.816862348 -3.900409814     0.000000000  0.127928567 -0.000000000

  length of vectors
     3.904042786  7.800819619  8.735933476     0.256144734  0.143263850  0.127928567


 FORCES acting on ions
    electron-ion (+dipol)            ewald-force                    non-local-force                 convergence-correction
 -----------------------------------------------------------------------------------------------
   0.747E-14 -.609E+02 0.636E+02   -.340E-13 0.605E+02 -.630E+02   0.000E+00 0.386E+00 -.553E+00   -.751E-14 0.317E-02 -.300E-02
   -.136E-14 0.609E+02 -.636E+02   0.495E-13 -.605E+02 0.630E+02   0.000E+00 -.386E+00 0.553E+00   -.148E-13 -.317E-02 0.300E-02
   -.226E-14 -.609E+02 -.636E+02   -.187E-13 0.605E+02 0.630E+02   -.542E-19 0.386E+00 0.553E+00   -.105E-13 0.317E-02 0.300E-02
   -.460E-14 0.609E+02 0.636E+02   0.388E-13 -.605E+02 -.630E+02   0.542E-19 -.386E+00 -.553E+00   -.957E-14 -.317E-02 -.300E-02
   -.585E-13 -.218E+02 -.458E-05   -.333E-13 0.218E+02 -.320E-07   0.000E+00 0.965E-01 -.606E-10   0.677E-15 0.824E-02 0.213E-06
   -.466E-13 -.782E-12 0.429E-12   -.141E-13 0.216E-13 0.186E-14   0.000E+00 0.136E-19 0.000E+00   -.525E-14 0.470E-13 0.244E-13
   -.550E-13 0.218E+02 0.458E-05   0.121E-13 -.218E+02 0.320E-07   0.000E+00 -.965E-01 0.606E-10   -.228E-14 -.824E-02 -.213E-06
   -.326E-12 0.897E-12 0.563E-11   0.102E-13 -.355E-13 -.336E-13   0.000E+00 0.000E+00 -.169E-20   -.151E-13 0.833E-15 0.729E-13
   -.119E-12 0.179E-12 -.157E-11   -.220E-14 0.114E-13 0.150E-13   0.000E+00 0.000E+00 0.136E-19   -.693E-14 -.454E-13 0.733E-13
   -.111E-12 0.453E-05 -.585E+02   -.640E-14 0.790E-08 0.532E+02   0.000E+00 0.276E-10 0.525E+01   -.145E-13 -.388E-07 -.283E-01
   -.116E-12 0.258E-11 -.505E-12   -.565E-14 0.820E-14 0.274E-13   0.000E+00 0.000E+00 0.296E-19   -.136E-13 -.231E-13 -.165E-12
   -.114E-12 -.453E-05 0.585E+02   0.378E-14 -.790E-08 -.532E+02   0.000E+00 -.276E-10 -.525E+01   -.186E-13 0.388E-07 0.283E-01
   -.126E-12 -.229E+01 -.220E-04   -.660E-14 -.144E+00 0.344E-07   0.000E+00 0.251E+01 -.158E-08   -.134E-14 0.691E-02 -.135E-06
   -.107E-12 0.229E+01 0.220E-04   -.260E-14 0.144E+00 -.344E-07   0.000E+00 -.251E+01 0.158E-08   -.119E-13 -.691E-02 0.135E-06
   -.113E-12 -.656E+02 -.251E-04   0.286E-13 0.614E+02 -.376E-07   0.000E+00 0.421E+01 -.264E-08   -.674E-15 -.161E-01 -.130E-06
   -.111E-12 0.656E+02 0.251E-04   -.328E-13 -.614E+02 0.376E-07   0.000E+00 -.421E+01 0.264E-08   -.106E-13 0.161E-01 0.130E-06
   0.183E-14 0.233E+02 -.848E-05   -.107E-13 -.242E+02 0.242E-07   0.000E+00 0.931E+00 -.585E-09   0.178E-14 -.315E-02 -.522E-07
   0.158E-14 0.244E-12 0.115E-12   0.169E-15 -.211E-13 0.297E-14   0.000E+00 0.339E-20 -.508E-20   0.269E-14 0.279E-13 -.126E-13
   0.664E-14 -.233E+02 0.848E-05   0.215E-13 0.242E+02 -.242E-07   0.000E+00 -.931E+00 0.585E-09   -.398E-14 0.315E-02 0.522E-07
   0.919E-14 0.285E-12 -.216E-12   0.692E-14 -.178E-13 -.332E-13   0.000E+00 -.678E-20 -.339E-20   -.556E-14 0.364E-16 -.187E-14
 -----------------------------------------------------------------------------------------------
   -.139E-11 0.121E-10 0.755E-11   0.470E-14 -.462E-13 0.139E-13   0.000E+00 -.678E-20 0.895E-15   -.147E-12 -.557E-13 0.525E-13
 
 
 POSITION                                       TOTAL-FORCE (eV/Angst)
 -----------------------------------------------------------------------------------
      0.00000      3.86349      0.05821        -0.000000     -0.043420      0.035865
      0.00000      0.04494      3.84220        -0.000000      0.043420     -0.035865
      0.00000      3.86349      3.84220        -0.000000     -0.043420     -0.035865
      0.00000      0.04494      0.05821        -0.000000      0.043420      0.035865
     -1.95202      5.86793      1.95020        -0.000000      0.093059     -0.000000
     -1.95202      1.95422      5.85061        -0.000000      0.000000      0.000000
     -1.95202      5.85737     -1.95020        -0.000000     -0.093059      0.000000
     -1.95202      1.95422      1.95020        -0.000000      0.000000      0.000000
     -1.95202      5.86265      3.90041        -0.000000      0.000000      0.000000
     -1.95202      1.95422      3.95108        -0.000000     -0.000000     -0.063237
     -1.95202      5.86265     -0.00000        -0.000000      0.000000      0.000000
     -1.95202      1.95422     -0.05067        -0.000000      0.000000      0.063237
     -1.95202      3.94311     -1.95020        -0.000000      0.082626     -0.000000
     -1.95202      7.78219      1.95020        -0.000000     -0.082626      0.000000
     -1.95202      3.94324      1.95020        -0.000000      0.014922     -0.000000
     -1.95202      7.78205     -1.95020        -0.000000     -0.014922      0.000000
      0.00000      5.87120     -1.95020        -0.000000      0.104576     -0.000000
      0.00000      1.95422      5.85061        -0.000000      0.000000      0.000000
      0.00000      5.85409      1.95020         0.000000     -0.104576      0.000000
      0.00000      1.95422      1.95020        -0.000000      0.000000      0.000000
 -----------------------------------------------------------------------------------
    total drift:                               -0.000000      0.000000      0.000000


--------------------------------------------------------------------------------------------------------



  FREE ENERGIE OF THE ION-ELECTRON SYSTEM (eV)
  ---------------------------------------------------
  free  energy   TOTEN  =      -153.01662403 eV

  energy  without entropy=     -153.01662403  energy(sigma->0) =     -153.01662403
 


--------------------------------------------------------------------------------------------------------


    POTLOK:  cpu time    0.0673: real time    0.0674


--------------------------------------------------------------------------------------------------------


     LOOP+:  cpu time   49.2408: real time   49.4932
    4ORBIT:  cpu time    0.0000: real time    0.0000
 


 total charge     
 
# of ion       s       p       d       f       tot
--------------------------------------------------
    1        1.999   5.696   0.483   0.187   8.365
    2        1.999   5.696   0.483   0.187   8.365
    3        1.999   5.696   0.482   0.187   8.365
    4        1.999   5.696   0.482   0.187   8.365
    5        0.327   0.504   4.883   0.000   5.715
    6        0.325   0.499   4.890   0.000   5.714
    7        0.327   0.504   4.884   0.000   5.715
    8        0.390   0.560   8.333   0.000   9.284
    9        1.564   3.455   0.000   0.000   5.019
   10        1.560   3.462   0.000   0.000   5.022
   11        1.564   3.457   0.000   0.000   5.021
   12        1.560   3.462   0.000   0.000   5.022
   13        1.565   3.455   0.000   0.000   5.020
   14        1.565   3.455   0.000   0.000   5.020
   15        1.560   3.461   0.000   0.000   5.021
   16        1.560   3.461   0.000   0.000   5.021
   17        1.564   3.456   0.000   0.000   5.020
   18        1.562   3.463   0.000   0.000   5.026
   19        1.564   3.456   0.000   0.000   5.020
   20        1.554   3.463   0.000   0.000   5.017
--------------------------------------------------
tot         28.109  66.357  24.921   0.747 120.135

 


 magnetization (x)
 
# of ion       s       p       d       f       tot
--------------------------------------------------
    1        0.000   0.001   0.010   0.005   0.016
    2        0.000   0.001   0.010   0.005   0.016
    3        0.000   0.001   0.010   0.005   0.016
    4        0.000   0.001   0.010   0.005   0.016
    5        0.024   0.028   3.636   0.000   3.688
    6        0.024   0.029   3.660   0.000   3.713
    7        0.024   0.028   3.637   0.000   3.688
    8        0.011   0.004   1.717   0.000   1.732
    9        0.005  -0.040   0.000   0.000  -0.035
   10        0.005  -0.006   0.000   0.000  -0.001
   11        0.005  -0.035   0.000   0.000  -0.030
   12        0.005  -0.006   0.000   0.000  -0.001
   13        0.006  -0.032   0.000   0.000  -0.026
   14        0.006  -0.032   0.000   0.000  -0.026
   15        0.005  -0.005   0.000   0.000   0.001
   16        0.005  -0.005   0.000   0.000   0.001
   17        0.006  -0.037   0.000   0.000  -0.031
   18        0.004  -0.028   0.000   0.000  -0.023
   19        0.006  -0.037   0.000   0.000  -0.031
   20        0.006   0.036   0.000   0.000   0.043
--------------------------------------------------
tot          0.148  -0.136  12.689   0.021  12.722

 
 BZINTS: Fermi energy:  7.993855;147.000000 electrons
         Band energy:-256.877982;  BLOECHL correction: -0.078597

 total amount of memory used by VASP MPI-rank0    56101. kBytes
=======================================================================

   base      :      30000. kBytes
   nonlr-proj:       5290. kBytes
   fftplans  :       2099. kBytes
   grid      :       5909. kBytes
   one-center:        196. kBytes
   wavefun   :      12607. kBytes
 
  
  
 General timing and accounting informations for this job:
 ========================================================
  
                  Total CPU time used (sec):       54.885
                            User time (sec):       52.770
                          System time (sec):        2.115
                         Elapsed time (sec):       55.765
  
                   Maximum memory used (kb):       95192.
                   Average memory used (kb):           0.
  
                          Minor page faults:        31287
                          Major page faults:            0
                 Voluntary context switches:         1001
