       N       E                     dE             d eps       ncg     rms          rms(c)
DAV:   1     0.159783015924E+04    0.15978E+04   -0.43102E+04  3792   0.246E+03
DAV:   2     0.453766372809E+03   -0.11441E+04   -0.10325E+04  3992   0.558E+02
DAV:   3     0.322222830634E+02   -0.42154E+03   -0.39009E+03  4268   0.290E+02
DAV:   4    -0.104695515576E+03   -0.13692E+03   -0.13174E+03  5936   0.146E+02
DAV:   5    -0.124844208755E+03   -0.20149E+02   -0.19590E+02  6390   0.628E+01    0.541E+01
RMM:   6    -0.111395360657E+03    0.13449E+02   -0.35430E+02  6125   0.965E+01    0.768E+01
RMM:   7    -0.108216437427E+03    0.31789E+01   -0.48084E+01  5922   0.312E+01    0.354E+01
RMM:   8    -0.105431615827E+03    0.27848E+01   -0.22369E+01  5153   0.319E+01    0.199E+01
RMM:   9    -0.106335496818E+03   -0.90388E+00   -0.11516E+01  5772   0.156E+01    0.127E+01
RMM:  10    -0.106642035097E+03   -0.30654E+00   -0.18190E+00  6036   0.592E+00    0.984E+00
RMM:  11    -0.106671421796E+03   -0.29387E-01   -0.77447E-01  6049   0.406E+00    0.603E+00
RMM:  12    -0.106745998208E+03   -0.74576E-01   -0.87069E-01  6007   0.346E+00    0.375E+00
RMM:  13    -0.106757889200E+03   -0.11891E-01   -0.26509E-01  5816   0.222E+00    0.171E+00
RMM:  14    -0.106767305059E+03   -0.94159E-02   -0.10429E-01  5556   0.125E+00    0.985E-01
RMM:  15    -0.106770623385E+03   -0.33183E-02   -0.32362E-02  5100   0.781E-01    0.495E-01
RMM:  16    -0.106771542749E+03   -0.91936E-03   -0.14034E-02  4009   0.482E-01    0.288E-01
RMM:  17    -0.106772030750E+03   -0.48800E-03   -0.77015E-03  3568   0.468E-01
   1 F= -.10677203E+03 E0= -.10677203E+03  d E =0.000000E+00  mag=     5.9937
