 vasp.5.4.4.18Apr17-6-g9f103f2a35 (build Oct 03 2018 13:58:34) complex          
  
 executed on             LinuxIFC date 2019.06.04  01:22:43
 running on   40 total cores
 distrk:  each k-point on   20 cores,    2 groups
 distr:  one band on NCORES_PER_BAND=  10 cores,    2 groups


--------------------------------------------------------------------------------------------------------


 INCAR:
 POTCAR:    PAW_PBE La 06Sep2000                  
 POTCAR:    PAW_PBE Mn 06Sep2000                  
 POTCAR:    PAW_PBE Ni 02Aug2007                  
 POTCAR:    PAW_PBE O 08Apr2002                   

 ----------------------------------------------------------------------------- 
|                                                                             |
|           W    W    AA    RRRRR   N    N  II  N    N   GGGG   !!!           |
|           W    W   A  A   R    R  NN   N  II  NN   N  G    G  !!!           |
|           W    W  A    A  R    R  N N  N  II  N N  N  G       !!!           |
|           W WW W  AAAAAA  RRRRR   N  N N  II  N  N N  G  GGG   !            |
|           WW  WW  A    A  R   R   N   NN  II  N   NN  G    G                |
|           W    W  A    A  R    R  N    N  II  N    N   GGGG   !!!           |
|                                                                             |
|      You have enabled k-point parallelism (KPAR>1).                         |
|      This developmental code was originally  written by Paul Kent at ORNL,  |
|      and carefully double checked in Vienna.                                |
|      GW as well as linear response parallelism added by Martijn Marsman     |
|      and Georg Kresse.                                                      |
|      Carefully verify results versus KPAR=1.                                |
|      Report problems to Paul Kent and Vienna.                               |
|                                                                             |
 ----------------------------------------------------------------------------- 

 POTCAR:    PAW_PBE La 06Sep2000                  
   VRHFIN =La : [core=Kr4d]                                                     
   LEXCH  = PE                                                                  
   EATOM  =   865.9763 eV,   63.6475 Ry                                         
                                                                                
   TITEL  = PAW_PBE La 06Sep2000                                                
   LULTRA =        F    use ultrasoft PP ?                                      
   IUNSCR =        1    unscreen: 0-lin 1-nonlin 2-no                           
   RPACOR =    2.300    partial core radius                                     
   POMASS =  138.900; ZVAL   =   11.000    mass and valenz                      
   RCORE  =    2.800    outmost cutoff radius                                   
   RWIGS  =    2.900; RWIGS  =    1.535    wigner-seitz radius (au A)           
   ENMAX  =  219.292; ENMIN  =  164.469 eV                                      
   RCLOC  =    1.601    cutoff for local pot                                    
   LCOR   =        T    correct aug charges                                     
   LPAW   =        T    paw PP                                                  
   EAUG   =  583.575                                                            
   DEXC   =    0.000                                                            
   RMAX   =    2.853    core radius for proj-oper                               
   RAUG   =    1.300    factor for augmentation sphere                          
   RDEP   =    2.802    radius for radial grids                                 
   RDEPT  =    2.156    core radius for aug-charge                              
                                                                                
   Atomic configuration                                                         
   14 entries                                                                   
     n  l   j            E        occ.                                          
     1  0  0.50    -38741.0879   2.0000                                         
     2  0  0.50     -6166.6801   2.0000                                         
     2  1  1.50     -5526.1593   6.0000                                         
     3  0  0.50     -1319.0200   2.0000                                         
     3  1  1.50     -1114.5963   6.0000                                         
     3  2  2.50      -821.1793  10.0000                                         
     4  0  0.50      -266.3851   2.0000                                         
     4  1  1.50      -199.9276   6.0000                                         
     4  2  2.50      -103.8239  10.0000                                         
     5  0  0.50       -38.9172   2.0000                                         
     6  0  0.50        -3.6792   2.0000                                         
     5  1  1.50       -22.3948   6.0000                                         
     5  2  2.50        -3.0911   0.9999                                         
     4  3  2.50        -4.3603   0.0001                                         
   Description                                                                  
     l       E           TYP  RCUT    TYP  RCUT                                 
     0    -38.9171645     23  2.800                                             
     0     -3.6792381     23  2.800                                             
     1    -22.3948300     23  2.500                                             
     1     27.2116520     23  2.500                                             
     2     -3.0910934     23  2.500                                             
     2      1.0119135     23  2.500                                             
     3     -4.3602911     23  2.800                                             
     3     -5.7208737     23  2.800                                             
  local pseudopotential read in
  partial core-charges read in
  partial kinetic energy density read in
  atomic valenz-charges read in
  non local Contribution for L=           0  read in
    real space projection operators read in
  non local Contribution for L=           0  read in
    real space projection operators read in
  non local Contribution for L=           1  read in
    real space projection operators read in
  non local Contribution for L=           1  read in
    real space projection operators read in
  non local Contribution for L=           2  read in
    real space projection operators read in
  non local Contribution for L=           2  read in
    real space projection operators read in
  non local Contribution for L=           3  read in
    real space projection operators read in
  non local Contribution for L=           3  read in
    real space projection operators read in
    PAW grid and wavefunctions read in
 
   number of l-projection  operators is LMAX  =           8
   number of lm-projection operators is LMMAX =          32
 
 POTCAR:    PAW_PBE Mn 06Sep2000                  
   VRHFIN =Mn: d6 s1                                                            
   LEXCH  = PE                                                                  
   EATOM  =   416.7541 eV,   30.6306 Ry                                         
                                                                                
   TITEL  = PAW_PBE Mn 06Sep2000                                                
   LULTRA =        F    use ultrasoft PP ?                                      
   IUNSCR =        1    unscreen: 0-lin 1-nonlin 2-no                           
   RPACOR =    2.000    partial core radius                                     
   POMASS =   54.938; ZVAL   =    7.000    mass and valenz                      
   RCORE  =    2.300    outmost cutoff radius                                   
   RWIGS  =    2.500; RWIGS  =    1.323    wigner-seitz radius (au A)           
   ENMAX  =  269.864; ENMIN  =  202.398 eV                                      
   RCLOC  =    1.725    cutoff for local pot                                    
   LCOR   =        T    correct aug charges                                     
   LPAW   =        T    paw PP                                                  
   EAUG   =  500.711                                                            
   DEXC   =    0.000                                                            
   RMAX   =    2.343    core radius for proj-oper                               
   RAUG   =    1.300    factor for augmentation sphere                          
   RDEP   =    2.338    radius for radial grids                                 
   RDEPT  =    1.911    core radius for aug-charge                              
                                                                                
   Atomic configuration                                                         
    9 entries                                                                   
     n  l   j            E        occ.                                          
     1  0  0.50     -6424.8288   2.0000                                         
     2  0  0.50      -739.1154   2.0000                                         
     2  1  1.50      -625.3949   6.0000                                         
     3  0  0.50       -81.6100   2.0000                                         
     3  1  1.50       -50.4667   6.0000                                         
     3  2  2.50        -3.3745   6.0000                                         
     4  0  0.50        -4.1331   1.0000                                         
     4  1  0.50        -4.0817   0.0000                                         
     4  3  2.50        -1.3606   0.0000                                         
   Description                                                                  
     l       E           TYP  RCUT    TYP  RCUT                                 
     2     -3.3744664     23  2.300                                             
     2     -4.7350490     23  2.300                                             
     0     -4.1331408     23  2.300                                             
     0      7.6656614     23  2.300                                             
     1     -2.7211652     23  2.300                                             
     1     20.4087390     23  2.300                                             
  local pseudopotential read in
  partial core-charges read in
  partial kinetic energy density read in
  atomic valenz-charges read in
  non local Contribution for L=           2  read in
    real space projection operators read in
  non local Contribution for L=           2  read in
    real space projection operators read in
  non local Contribution for L=           0  read in
    real space projection operators read in
  non local Contribution for L=           0  read in
    real space projection operators read in
  non local Contribution for L=           1  read in
    real space projection operators read in
  non local Contribution for L=           1  read in
    real space projection operators read in
    PAW grid and wavefunctions read in
 
   number of l-projection  operators is LMAX  =           6
   number of lm-projection operators is LMMAX =          18
 
 POTCAR:    PAW_PBE Ni 02Aug2007                  
   VRHFIN =Ni:                                                                  
   LEXCH  = PE                                                                  
   EATOM  =  1077.6739 eV,   79.2068 Ry                                         
                                                                                
   TITEL  = PAW_PBE Ni 02Aug2007                                                
   LULTRA =        F    use ultrasoft PP ?                                      
   IUNSCR =        1    unscreen: 0-lin 1-nonlin 2-no                           
   RPACOR =    2.000    partial core radius                                     
   POMASS =   58.690; ZVAL   =   10.000    mass and valenz                      
   RCORE  =    2.300    outmost cutoff radius                                   
   RWIGS  =    2.430; RWIGS  =    1.286    wigner-seitz radius (au A)           
   ENMAX  =  269.532; ENMIN  =  202.149 eV                                      
   RCLOC  =    1.201    cutoff for local pot                                    
   LCOR   =        T    correct aug charges                                     
   LPAW   =        T    paw PP                                                  
   EAUG   =  544.565                                                            
   DEXC   =    0.000                                                            
   RMAX   =    2.357    core radius for proj-oper                               
   RAUG   =    1.300    factor for augmentation sphere                          
   RDEP   =    2.390    radius for radial grids                                 
   RDEPT  =    1.838    core radius for aug-charge                              
                                                                                
   Atomic configuration                                                         
    9 entries                                                                   
     n  l   j            E        occ.                                          
     1  0  0.50     -8206.4253   2.0000                                         
     2  0  0.50      -976.1748   2.0000                                         
     2  1  1.50      -839.0571   6.0000                                         
     3  0  0.50      -105.9991   2.0000                                         
     3  1  1.50       -66.4603   6.0000                                         
     3  2  2.50        -4.6458   9.0000                                         
     4  0  0.50        -4.4926   1.0000                                         
     4  1  1.50        -4.0817   0.0000                                         
     4  3  2.50        -1.3606   0.0000                                         
   Description                                                                  
     l       E           TYP  RCUT    TYP  RCUT                                 
     2     -4.6457903     23  2.300                                             
     2     -6.0063729     23  2.300                                             
     0     -4.4925590     23  2.300                                             
     0      5.0102601     23  2.300                                             
     1     -2.7211652     23  2.300                                             
     1     16.5183231     23  2.300                                             
  local pseudopotential read in
  partial core-charges read in
  partial kinetic energy density read in
  atomic valenz-charges read in
  non local Contribution for L=           2  read in
    real space projection operators read in
  non local Contribution for L=           2  read in
    real space projection operators read in
  non local Contribution for L=           0  read in
    real space projection operators read in
  non local Contribution for L=           0  read in
    real space projection operators read in
  non local Contribution for L=           1  read in
    real space projection operators read in
  non local Contribution for L=           1  read in
    real space projection operators read in
    PAW grid and wavefunctions read in
 
   number of l-projection  operators is LMAX  =           6
   number of lm-projection operators is LMMAX =          18
 
 POTCAR:    PAW_PBE O 08Apr2002                   
   VRHFIN =O: s2p4                                                              
   LEXCH  = PE                                                                  
   EATOM  =   432.3788 eV,   31.7789 Ry                                         
                                                                                
   TITEL  = PAW_PBE O 08Apr2002                                                 
   LULTRA =        F    use ultrasoft PP ?                                      
   IUNSCR =        1    unscreen: 0-lin 1-nonlin 2-no                           
   RPACOR =    1.200    partial core radius                                     
   POMASS =   16.000; ZVAL   =    6.000    mass and valenz                      
   RCORE  =    1.520    outmost cutoff radius                                   
   RWIGS  =    1.550; RWIGS  =    0.820    wigner-seitz radius (au A)           
   ENMAX  =  400.000; ENMIN  =  300.000 eV                                      
   ICORE  =        2    local potential                                         
   LCOR   =        T    correct aug charges                                     
   LPAW   =        T    paw PP                                                  
   EAUG   =  605.392                                                            
   DEXC   =    0.000                                                            
   RMAX   =    1.553    core radius for proj-oper                               
   RAUG   =    1.300    factor for augmentation sphere                          
   RDEP   =    1.550    radius for radial grids                                 
   RDEPT  =    1.329    core radius for aug-charge                              
                                                                                
   Atomic configuration                                                         
    4 entries                                                                   
     n  l   j            E        occ.                                          
     1  0  0.50      -514.6923   2.0000                                         
     2  0  0.50       -23.9615   2.0000                                         
     2  1  0.50        -9.0305   4.0000                                         
     3  2  1.50        -9.5241   0.0000                                         
   Description                                                                  
     l       E           TYP  RCUT    TYP  RCUT                                 
     0    -23.9615318     23  1.200                                             
     0     -9.5240782     23  1.200                                             
     1     -9.0304911     23  1.520                                             
     1      8.1634956     23  1.520                                             
     2     -9.5240782      7  1.500                                             
  local pseudopotential read in
  partial core-charges read in
  partial kinetic energy density read in
  kinetic energy density of atom read in
  atomic valenz-charges read in
  non local Contribution for L=           0  read in
    real space projection operators read in
  non local Contribution for L=           0  read in
    real space projection operators read in
  non local Contribution for L=           1  read in
    real space projection operators read in
  non local Contribution for L=           1  read in
    real space projection operators read in
    PAW grid and wavefunctions read in
 
   number of l-projection  operators is LMAX  =           4
   number of lm-projection operators is LMMAX =           8
 
 Optimization of the real space projectors (new method)

 maximal supplied QI-value         = 13.42
 optimisation between [QCUT,QGAM] = [ 11.67, 23.35] = [ 38.16,152.62] Ry 
 Optimized for a Real-space Cutoff    1.63 Angstroem

   l    n(q)    QCUT    max X(q) W(low)/X(q) W(high)/X(q)  e(spline) 
   0     11    11.673    13.882    0.27E-04    0.79E-05    0.11E-06
   0     11    11.673    12.184    0.39E-04    0.13E-04    0.19E-06
   1     11    11.673     4.523    0.73E-05    0.76E-05    0.12E-06
   1     11    11.673     4.424    0.87E-05    0.13E-04    0.19E-06
   2     10    11.673    52.481    0.65E-04    0.36E-04    0.18E-06
   2     10    11.673    38.501    0.61E-04    0.33E-04    0.17E-06
   3     10    11.673    65.631    0.17E-03    0.14E-03    0.37E-06
   3     10    11.673    56.854    0.17E-03    0.14E-03    0.37E-06
 Optimization of the real space projectors (new method)

 maximal supplied QI-value         = 16.25
 optimisation between [QCUT,QGAM] = [ 11.54, 23.24] = [ 37.28,151.24] Ry 
 Optimized for a Real-space Cutoff    1.53 Angstroem

   l    n(q)    QCUT    max X(q) W(low)/X(q) W(high)/X(q)  e(spline) 
   2     10    11.539   110.144    0.12E-03    0.13E-03    0.25E-06
   2     10    11.539   103.200    0.12E-03    0.13E-03    0.25E-06
   0     11    11.539    68.437    0.46E-04    0.21E-04    0.32E-06
   0     11    11.539    33.971    0.37E-04    0.19E-04    0.29E-06
   1     10    11.539    17.065    0.51E-04    0.22E-04    0.13E-06
   1     10    11.539    12.540    0.41E-04    0.18E-04    0.11E-06
 Optimization of the real space projectors (new method)

 maximal supplied QI-value         = 16.25
 optimisation between [QCUT,QGAM] = [ 11.54, 23.24] = [ 37.28,151.24] Ry 
 Optimized for a Real-space Cutoff    1.45 Angstroem

   l    n(q)    QCUT    max X(q) W(low)/X(q) W(high)/X(q)  e(spline) 
   2      9    11.539    60.317    0.19E-03    0.47E-04    0.16E-06
   2      9    11.539    55.921    0.19E-03    0.48E-04    0.16E-06
   0     10    11.539    51.690    0.80E-04    0.50E-04    0.24E-06
   0     10    11.539    30.015    0.73E-04    0.45E-04    0.22E-06
   1     10    11.539    18.849    0.87E-04    0.16E-03    0.71E-07
   1     10    11.539    14.624    0.73E-04    0.13E-03    0.64E-07
 Optimization of the real space projectors (new method)

 maximal supplied QI-value         = 24.76
 optimisation between [QCUT,QGAM] = [ 11.64, 23.27] = [ 37.91,151.63] Ry 
 Optimized for a Real-space Cutoff    1.14 Angstroem

   l    n(q)    QCUT    max X(q) W(low)/X(q) W(high)/X(q)  e(spline) 
   0      8    11.635    20.381    0.10E-03    0.33E-03    0.24E-06
   0      8    11.635    15.268    0.11E-03    0.35E-03    0.26E-06
   1      7    11.635     5.964    0.24E-03    0.31E-03    0.30E-06
   1      7    11.635     5.382    0.22E-03    0.25E-03    0.26E-06
  PAW_PBE La 06Sep2000                  :
 energy of atom  1       EATOM= -865.9763
 kinetic energy error for atom=    0.0009 (will be added to EATOM!!)
  PAW_PBE Mn 06Sep2000                  :
 energy of atom  2       EATOM= -416.7541
 kinetic energy error for atom=    0.0024 (will be added to EATOM!!)
  PAW_PBE Ni 02Aug2007                  :
 energy of atom  3       EATOM=-1077.6739
 kinetic energy error for atom=    0.0030 (will be added to EATOM!!)
  PAW_PBE O 08Apr2002                   :
 energy of atom  4       EATOM= -432.3788
 kinetic energy error for atom=    0.0208 (will be added to EATOM!!)
 
 
 POSCAR: SCEL3_3_1_1_0_1_1/0                     
  positions in direct lattice
  velocities in cartesian coordinates
 exchange correlation table for  LEXCH =        8
   RHO(1)=    0.500       N(1)  =     2000
   RHO(2)=  100.500       N(2)  =     4000
 


--------------------------------------------------------------------------------------------------------


 ion  position               nearest neighbor table
   1  0.000  0.000  0.004-   7 2.74  11 2.74  14 2.74   9 2.76  10 2.76  13 2.76  10 2.76   9 2.76
                            13 2.76  12 2.78   8 2.78  15 2.78   4 3.34   6 3.37   6 3.37   6 3.37
   2  0.667  0.333  0.329-   9 2.74  10 2.74  13 2.74   7 2.76  14 2.76  11 2.76   7 2.76  11 2.76
                            14 2.76  15 2.78   8 2.78  12 2.78   5 3.34   6 3.37   6 3.37   6 3.37
   3  0.333  0.667  0.667-   9 2.75  10 2.75  14 2.75  13 2.75   7 2.75  11 2.75   8 2.76  12 2.76
                            15 2.76   8 2.76  12 2.76  15 2.76   6 3.38   6 3.38   5 3.38   5 3.38
   4  0.000  0.000  0.498-   7 1.92  11 1.92  14 1.92  12 1.96   8 1.96  15 1.96   1 3.34   2 3.38
                             2 3.38   2 3.38   3 3.38   3 3.38   3 3.38   1 3.42
   5  0.667  0.333  0.836-   9 1.92  10 1.92  13 1.92  15 1.96   8 1.96  12 1.96   2 3.34   1 3.38
                             1 3.38   1 3.38   3 3.38   3 3.38   3 3.38   2 3.42
   6  0.333  0.667  0.167-  14 1.97  11 1.97   7 1.97   9 1.97  10 1.97  13 1.97   2 3.37   2 3.37
                             1 3.37   1 3.37   1 3.37   2 3.37   3 3.38   3 3.38
   7  0.669  0.835  0.335-   4 1.92   6 1.97   1 2.74   3 2.75   2 2.76   2 2.76
   8  0.333  0.167  0.667-   5 1.96   4 1.96   3 2.76   3 2.76   1 2.78   2 2.78
   9  0.998  0.499  0.998-   5 1.92   6 1.97   2 2.74   3 2.75   1 2.76   1 2.76
  10  0.501  0.002  0.998-   5 1.92   6 1.97   2 2.74   3 2.75   1 2.76   1 2.76
  11  0.165  0.331  0.335-   4 1.92   6 1.97   1 2.74   3 2.75   2 2.76   2 2.76
  12  0.833  0.667  0.667-   5 1.96   4 1.96   3 2.76   3 2.76   1 2.78   2 2.78
  13  0.501  0.499  0.998-   5 1.92   6 1.97   2 2.74   3 2.75   1 2.76   1 2.76
  14  0.165  0.835  0.335-   4 1.92   6 1.97   1 2.74   3 2.75   2 2.76   2 2.76
  15  0.833  0.167  0.667-   5 1.96   4 1.96   3 2.76   3 2.76   1 2.78   2 2.78
 
  LATTYP: Found a hexagonal cell.
 ALAT       =     5.5145748581
 C/A-ratio  =     1.2250596010
  
  Lattice vectors:
  
 A1 = (  -3.8993932775,   0.0000000000,  -3.8993932775)
 A2 = (   0.0000000000,  -3.8993932775,   3.8993932775)
 A3 = (  -3.9003953267,   3.9003953267,   3.9003953267)


Analysis of symmetry for initial positions (statically):
=====================================================================
 Subroutine PRICEL returns:
 Original cell was already a primitive cell.
 

 Routine SETGRP: Setting up the symmetry group for a 
 hexagonal supercell.


 Subroutine GETGRP returns: Found 12 space group operations
 (whereof  6 operations were pure point group operations)
 out of a pool of 24 trial point group operations.


The static configuration has the point symmetry C_3v.
 The point group associated with its full space group is D_3d.


Analysis of symmetry for dynamics (positions and initial velocities):
=====================================================================
 Subroutine PRICEL returns:
 Original cell was already a primitive cell.
 

 Routine SETGRP: Setting up the symmetry group for a 
 hexagonal supercell.


 Subroutine GETGRP returns: Found 12 space group operations
 (whereof  6 operations were pure point group operations)
 out of a pool of 24 trial point group operations.


The dynamic configuration has the point symmetry C_3v.
 The point group associated with its full space group is D_3d.


Analysis of structural, dynamic, and magnetic symmetry:
=====================================================================
 Subroutine PRICEL returns:
 Original cell was already a primitive cell.
 

 Routine SETGRP: Setting up the symmetry group for a 
 hexagonal supercell.


 Subroutine GETGRP returns: Found 12 space group operations
 (whereof  6 operations were pure point group operations)
 out of a pool of 24 trial point group operations.


The magnetic configuration has the point symmetry C_3v.
 The point group associated with its full space group is D_3d.


 Subroutine INISYM returns: Found 12 space group operations
 (whereof  6 operations are pure point group operations),
 and found     1 'primitive' translations

 
 
 KPOINTS: Automatic mesh                          

Automatic generation of k-mesh.
 generate k-points for:    4    4    3
Space group operators:
 irot       det(A)        alpha          n_x          n_y          n_z        tau_x        tau_y        tau_z
    1     1.000000     0.000000     1.000000     0.000000     0.000000     0.000000     0.000000     0.000000
    2     1.000000   120.000000     0.577350    -0.577350    -0.577350     0.000000     0.000000     0.000000
    3     1.000000   120.000000    -0.577350     0.577350     0.577350     0.000000     0.000000     0.000000
    4    -1.000000   180.000000     0.707107     0.000000     0.707107     0.000000     0.000000     0.000000
    5    -1.000000   180.000000    -0.000000    -0.707107     0.707107     0.000000     0.000000     0.000000
    6    -1.000000   180.000000     0.707107     0.707107    -0.000000     0.000000     0.000000     0.000000
    7    -1.000000     0.000000     1.000000     0.000000     0.000000     0.666667     0.333333     0.333333
    8    -1.000000   120.000000     0.577350    -0.577350    -0.577350     0.666667     0.333333     0.333333
    9    -1.000000   120.000000    -0.577350     0.577350     0.577350     0.666667     0.333333     0.333333
   10     1.000000   180.000000     0.707107     0.000000     0.707107     0.666667     0.333333     0.333333
   11     1.000000   180.000000    -0.000000    -0.707107     0.707107     0.666667     0.333333     0.333333
   12     1.000000   180.000000     0.707107     0.707107    -0.000000     0.666667     0.333333     0.333333
 
 Subroutine IBZKPT returns following result:
 ===========================================
 
 Found      9 irreducible k-points:
 
 Following reciprocal coordinates:
            Coordinates               Weight
  0.000000  0.000000  0.000000      1.000000
  0.250000  0.000000  0.000000      6.000000
  0.500000  0.000000  0.000000      3.000000
  0.250000  0.250000  0.000000      6.000000
  0.000000  0.000000  0.333333      2.000000
  0.250000  0.000000  0.333333      6.000000
  0.500000  0.000000  0.333333      6.000000
 -0.250000  0.000000  0.333333      6.000000
  0.250000  0.250000  0.333333     12.000000
 
 Following cartesian coordinates:
            Coordinates               Weight
  0.000000  0.000000  0.000000      1.000000
 -0.042742 -0.021371 -0.021371      6.000000
 -0.085483 -0.042742 -0.042742      3.000000
 -0.064113 -0.064113  0.000000      6.000000
 -0.028487  0.028487  0.028487      2.000000
 -0.071229  0.007116  0.007116      6.000000
 -0.113971 -0.014255 -0.014255      6.000000
  0.014255  0.049858  0.049858      6.000000
 -0.092600 -0.035625  0.028487     12.000000
 
 TETIRR: Found     58 inequivalent tetrahedra from      288


--------------------------------------------------------------------------------------------------------




 Dimension of arrays:
   k-points           NKPTS =      9   k-points in BZ     NKDIM =      9   number of bands    NBANDS=     72
   number of dos      NEDOS =    301   number of ions     NIONS =     15
   non local maximal  LDIM  =      8   non local SUM 2l+1 LMDIM =     32
   total plane-waves  NPLWV =  88200
   max r-space proj   IRMAX =   8996   max aug-charges    IRDMAX=  26100
   dimension x,y,z NGX =    42 NGY =   42 NGZ =   50
   dimension x,y,z NGXF=    84 NGYF=   84 NGZF=  100
   support grid    NGXF=    84 NGYF=   84 NGZF=  100
   ions per type =               3   2   1   9
   NGX,Y,Z   is equivalent  to a cutoff of  12.66, 12.66, 12.30 a.u.
   NGXF,Y,Z  is equivalent  to a cutoff of  25.32, 25.32, 24.61 a.u.

 SYSTEM =  final                                   
 POSCAR =  SCEL3_3_1_1_0_1_1/0                     

 Startparameter for this run:
   NWRITE =      2    write-flag & timer
   PREC   = accura    normal or accurate (medium, high low for compatibility)
   ISTART =      0    job   : 0-new  1-cont  2-samecut
   ICHARG =      1    charge: 1-file 2-atom 10-const
   ISPIN  =      2    spin polarized calculation?
   LNONCOLLINEAR =      F non collinear calculations
   LSORBIT =      F    spin-orbit coupling
   INIWAV =      1    electr: 0-lowe 1-rand  2-diag
   LASPH  =      F    aspherical Exc in radial PAW
   METAGGA=      F    non-selfconsistent MetaGGA calc.

 Electronic Relaxation 1
   ENCUT  =  520.0 eV  38.22 Ry    6.18 a.u.  10.25 10.25 12.56*2*pi/ulx,y,z
   ENINI  =  520.0     initial cutoff
   ENAUG  =  605.4 eV  augmentation charge cutoff
   NELM   =    100;   NELMIN=  2; NELMDL= -5     # of ELM steps 
   EDIFF  = 0.1E-02   stopping-criterion for ELM
   LREAL  =      T    real-space projection
   NLSPLINE    = F    spline interpolate recip. space projectors
   LCOMPAT=      F    compatible to vasp.4.4
   GGA_COMPAT  = T    GGA compatible to vasp.4.4-vasp.4.6
   LMAXPAW     = -100 max onsite density
   LMAXMIX     =    6 max onsite mixed and CHGCAR
   VOSKOWN=      0    Vosko Wilk Nusair interpolation
   ROPT   =   -0.00025  -0.00025  -0.00025  -0.00025
 Ionic relaxation
   EDIFFG = 0.1E-01   stopping-criterion for IOM
   NSW    =      0    number of steps for IOM
   NBLOCK =      1;   KBLOCK =      1    inner block; outer block 
   IBRION =     -1    ionic relax: 0-MD 1-quasi-New 2-CG
   NFREE  =      0    steps in history (QN), initial steepest desc. (CG)
   ISIF   =      2    stress and relaxation
   IWAVPR =     10    prediction:  0-non 1-charg 2-wave 3-comb
   ISYM   =      2    0-nonsym 1-usesym 2-fastsym
   LCORR  =      T    Harris-Foulkes like correction to forces

   POTIM  = 0.5000    time-step for ionic-motion
   TEIN   =    0.0    initial temperature
   TEBEG  =    0.0;   TEEND  =   0.0 temperature during run
   SMASS  =  -3.00    Nose mass-parameter (am)
   estimated Nose-frequenzy (Omega)   =  0.10E-29 period in steps =****** mass=  -0.695E-27a.u.
   SCALEE = 1.0000    scale energy and forces
   NPACO  =    256;   APACO  = 16.0  distance and # of slots for P.C.
   PSTRESS=    0.0 pullay stress

  Mass of Ions in am
   POMASS = 138.90 54.94 58.69 16.00
  Ionic Valenz
   ZVAL   =  11.00  7.00 10.00  6.00
  Atomic Wigner-Seitz radii
   RWIGS  =  -1.00 -1.00 -1.00 -1.00
  virtual crystal weights 
   VCA    =   1.00  1.00  1.00  1.00
   NELECT =     111.0000    total number of electrons
   NUPDOWN=      -1.0000    fix difference up-down

 DOS related values:
   EMIN   =  10.00;   EMAX   =-10.00  energy-range for DOS
   EFERMI =   0.00
   ISMEAR =    -5;   SIGMA  =   0.05  broadening in eV -4-tet -1-fermi 0-gaus

 Electronic relaxation 2 (details)
   IALGO  =     68    algorithm
   LDIAG  =      T    sub-space diagonalisation (order eigenvalues)
   LSUBROT=      F    optimize rotation matrix (better conditioning)
   TURBO    =      0    0=normal 1=particle mesh
   IRESTART =      0    0=no restart 2=restart with 2 vectors
   NREBOOT  =      0    no. of reboots
   NMIN     =      0    reboot dimension
   EREF     =   0.00    reference energy to select bands
   IMIX   =      4    mixing-type and parameters
     AMIX     =   0.40;   BMIX     =  1.00
     AMIX_MAG =   1.60;   BMIX_MAG =  1.00
     AMIN     =   0.10
     WC   =   100.;   INIMIX=   1;  MIXPRE=   1;  MAXMIX= -45

 Intra band minimization:
   WEIMIN = 0.0000     energy-eigenvalue tresh-hold
   EBREAK =  0.35E-05  absolut break condition
   DEPER  =   0.30     relativ break condition  

   TIME   =   0.40     timestep for ELM

  volume/ion in A,a.u.               =      11.86        80.04
  Fermi-wavevector in a.u.,A,eV,Ry     =   1.398861  2.643464 26.624038  1.956812
  Thomas-Fermi vector in A             =   2.521977
 
 Write flags
   LWAVE        =      F    write WAVECAR
   LDOWNSAMPLE  =      F    k-point downsampling of WAVECAR
   LCHARG       =      T    write CHGCAR
   LVTOT        =      F    write LOCPOT, total local potential
   LVHAR        =      F    write LOCPOT, Hartree potential only
   LELF         =      F    write electronic localiz. function (ELF)
   LORBIT       =     11    0 simple, 1 ext, 2 COOP (PROOUT), +10 PAW based schemes


 Dipole corrections
   LMONO  =      F    monopole corrections only (constant potential shift)
   LDIPOL =      F    correct potential (dipole corrections)
   IDIPOL =      0    1-x, 2-y, 3-z, 4-all directions 
   EPSILON=  1.0000000 bulk dielectric constant

 LDA+U is selected, type is set to LDAUTYPE =  2
   angular momentum for each species LDAUL =     0    2    2    0
   U (eV)           for each species LDAUU =   0.0  3.9  6.2  0.0
   J (eV)           for each species LDAUJ =   0.0  0.0  0.0  0.0
 Exchange correlation treatment:
   GGA     =    --    GGA type
   LEXCH   =     8    internal setting for exchange type
   VOSKOWN=      0    Vosko Wilk Nusair interpolation
   LHFCALC =     F    Hartree Fock is set to
   LHFONE  =     F    Hartree Fock one center treatment
   AEXX    =    0.0000 exact exchange contribution

 Linear response parameters
   LEPSILON=     F    determine dielectric tensor
   LRPA    =     F    only Hartree local field effects (RPA)
   LNABLA  =     F    use nabla operator in PAW spheres
   LVEL    =     F    velocity operator in full k-point grid
   LINTERFAST=   F  fast interpolation
   KINTER  =     0    interpolate to denser k-point grid
   CSHIFT  =0.1000    complex shift for real part using Kramers Kronig
   OMEGAMAX=  -1.0    maximum frequency
   DEG_THRESHOLD= 0.2000000E-02 threshold for treating states as degnerate
   RTIME   =   -0.100 relaxation time in fs
  (WPLASMAI=    0.000 imaginary part of plasma frequency in eV, 0.658/RTIME)
   DFIELD  = 0.0000000 0.0000000 0.0000000 field for delta impulse in time
 
 Orbital magnetization related:
   ORBITALMAG=     F  switch on orbital magnetization
   LCHIMAG   =     F  perturbation theory with respect to B field
   DQ        =  0.001000  dq finite difference perturbation B field
   LLRAUG    =     F  two centre corrections for induced B field



--------------------------------------------------------------------------------------------------------


 Static calculation
 charge density and potential will be updated during run
 spin polarized calculation
 RMM-DIIS sequential band-by-band and
  variant of blocked Davidson during initial phase
 perform sub-space diagonalisation
    before iterative eigenvector-optimisation
 modified Broyden-mixing scheme, WC =      100.0
 initial mixing is a Kerker type mixing with AMIX =  0.4000 and BMIX =      1.0000
 Hartree-type preconditioning will be used
 using additional bands           16
 real space projection scheme for non local part
 use partial core corrections
 calculate Harris-corrections to forces 
   (improved forces if not selfconsistent)
 use gradient corrections 
 use of overlap-Matrix (Vanderbilt PP)
 Fermi weights with tetrahedron method with Bloechl corrections


--------------------------------------------------------------------------------------------------------


  energy-cutoff  :      520.00
  volume of cell :      177.92
      direct lattice vectors                 reciprocal lattice vectors
    -3.899393278  0.000000000 -3.899393278    -0.170966768 -0.085483384 -0.085483384
     0.000000000 -3.899393278  3.899393278    -0.085483384 -0.170966768  0.085483384
    -3.900395327  3.900395327  3.900395327    -0.085461423  0.085461423  0.085461423

  length of vectors
     5.514574858  5.514574858  6.755682875     0.209390673  0.209390673  0.148023526


 
 k-points in units of 2pi/SCALE and weight: Automatic mesh                          
   0.00000000  0.00000000  0.00000000       0.021
  -0.04274169 -0.02137085 -0.02137085       0.125
  -0.08548338 -0.04274169 -0.04274169       0.062
  -0.06411254 -0.06411254  0.00000000       0.125
  -0.02848714  0.02848714  0.02848714       0.042
  -0.07122883  0.00711629  0.00711629       0.125
  -0.11397052 -0.01425455 -0.01425455       0.125
   0.01425455  0.04985799  0.04985799       0.125
  -0.09259968 -0.03562540  0.02848714       0.250
 
 k-points in reciprocal lattice and weights: Automatic mesh                          
   0.00000000  0.00000000  0.00000000       0.021
   0.25000000  0.00000000  0.00000000       0.125
   0.50000000  0.00000000  0.00000000       0.062
   0.25000000  0.25000000  0.00000000       0.125
   0.00000000  0.00000000  0.33333333       0.042
   0.25000000  0.00000000  0.33333333       0.125
   0.50000000  0.00000000  0.33333333       0.125
  -0.25000000  0.00000000  0.33333333       0.125
   0.25000000  0.25000000  0.33333333       0.250
 
 position of ions in fractional coordinates (direct lattice) 
   0.00000000  0.00000000  0.00395517
   0.66666670  0.33333330  0.32937813
   0.33333330  0.66666670  0.66666670
   0.00000000  0.00000000  0.49763680
   0.66666670  0.33333330  0.83569650
   0.33333330  0.66666670  0.16666670
   0.66915835  0.83457913  0.33521529
   0.33333330  0.16666670  0.66666670
   0.99750835  0.49875417  0.99811801
   0.50124583  0.00249165  0.99811801
   0.16542087  0.33084165  0.33521529
   0.83333330  0.66666670  0.66666670
   0.50124583  0.49875417  0.99811801
   0.16542087  0.83457913  0.33521529
   0.83333330  0.16666670  0.66666670
 
 position of ions in cartesian coordinates  (Angst):
  -0.01542674  0.01542674  0.01542674
  -3.88430055 -0.01509273 -0.01509312
  -3.90006131  0.00066803  3.90006170
  -1.94098026  1.94098026  1.94098026
  -5.85914236  1.95974908  1.95974869
  -1.94986365 -1.94952963  1.94986404
  -3.91678374 -1.94688009  1.95251280
  -3.90006131  1.95036467  1.95036506
  -7.78273216  1.94821616  1.94821616
  -5.84760943  3.88333888  1.94821616
  -1.95251319  0.01739046  1.95251280
  -5.84975795  0.00066803  1.95036506
  -5.84760943  1.94821616  3.88333888
  -1.95251319 -1.94688009  3.91678335
  -5.84975795  1.95036467  0.00066842
 


--------------------------------------------------------------------------------------------------------


 k-point  1 :   0.0000 0.0000 0.0000  plane waves:    4735
 k-point  2 :   0.2500 0.0000 0.0000  plane waves:    4792
 k-point  3 :   0.5000 0.0000 0.0000  plane waves:    4816
 k-point  4 :   0.2500 0.2500 0.0000  plane waves:    4782
 k-point  5 :   0.0000 0.0000 0.3333  plane waves:    4789
 k-point  6 :   0.2500 0.0000 0.3333  plane waves:    4783
 k-point  7 :   0.5000 0.0000 0.3333  plane waves:    4792
 k-point  8 :  -0.2500 0.0000 0.3333  plane waves:    4783
 k-point  9 :   0.2500 0.2500 0.3333  plane waves:    4800

 maximum and minimum number of plane-waves per node :       492      462

 maximum number of plane-waves:      4816
 maximum index in each direction: 
   IXMAX=   10   IYMAX=   10   IZMAX=   12
   IXMIN=  -10   IYMIN=  -10   IZMIN=  -12


 real space projection operators:
  total allocation   :      11085.05 KBytes
  max/ min on nodes  :       1292.84       1051.77


 parallel 3D FFT for wavefunctions:
    minimum data exchange during FFTs selected (reduces bandwidth)
 parallel 3D FFT for charge:
    minimum data exchange during FFTs selected (reduces bandwidth)


 total amount of memory used by VASP MPI-rank0    46146. kBytes
=======================================================================

   base      :      30000. kBytes
   nonlr-proj:       3878. kBytes
   fftplans  :       1695. kBytes
   grid      :       4945. kBytes
   one-center:        196. kBytes
   wavefun   :       5432. kBytes
 
     INWAV:  cpu time    0.0000: real time    0.0001
 Broyden mixing: mesh for mixing (old mesh)
   NGX = 21   NGY = 21   NGZ = 25
  (NGX  = 84   NGY  = 84   NGZ  =100)
  gives a total of  11025 points

 initial charge density was supplied:
 charge density of overlapping atoms calculated
 number of electron     111.0000000 magnetization      11.0000000
 keeping initial charge density in first step


--------------------------------------------------------------------------------------------------------


 Maximum index for non-local projection operator         1276
 Maximum index for augmentation-charges         1850 (set IRDMAX)


--------------------------------------------------------------------------------------------------------


 First call to EWALD:  gamma=   0.315
 Maximum number of real-space cells 3x 3x 2
 Maximum number of reciprocal cells 3x 3x 3

    FEWALD:  cpu time    0.0018: real time    0.0018


--------------------------------------- Iteration      1(   1)  ---------------------------------------


    POTLOK:  cpu time    0.0444: real time    0.0449
    SETDIJ:  cpu time    0.0120: real time    0.0122
atom =   1  type =  1  l = 0
 
 onsite density matrix
 
spin component  1
 
  1.0989
 
spin component  2
 
  1.0989
 
 occupancies and eigenvectors
 
  o =  1.0989  v =  1.0000  0.0000      0.0000  0.0000
  o =  1.0989  v =  0.0000  1.0000      0.0000  0.0000
atom =   2  type =  1  l = 0
 
 onsite density matrix
 
spin component  1
 
  1.0989
 
spin component  2
 
  1.0989
 
 occupancies and eigenvectors
 
  o =  1.0989  v =  1.0000  0.0000      0.0000  0.0000
  o =  1.0989  v =  0.0000  1.0000      0.0000  0.0000
atom =   3  type =  1  l = 0
 
 onsite density matrix
 
spin component  1
 
  1.0989
 
spin component  2
 
  1.0989
 
 occupancies and eigenvectors
 
  o =  1.0989  v =  1.0000  0.0000      0.0000  0.0000
  o =  1.0989  v =  0.0000  1.0000      0.0000  0.0000
atom =   4  type =  2  l = 2
 
 onsite density matrix
 
spin component  1
 
  0.8272  0.0000  0.0000  0.0000  0.0000
  0.0000  0.8272  0.0000  0.0000  0.0000
  0.0000  0.0000  0.8272  0.0000  0.0000
  0.0000  0.0000  0.0000  0.8272  0.0000
  0.0000  0.0000  0.0000  0.0000  0.8272
 
spin component  2
 
  0.2256  0.0000  0.0000  0.0000  0.0000
  0.0000  0.2256  0.0000  0.0000  0.0000
  0.0000  0.0000  0.2256  0.0000  0.0000
  0.0000  0.0000  0.0000  0.2256  0.0000
  0.0000  0.0000  0.0000  0.0000  0.2256
 
 occupancies and eigenvectors
 
  o =  0.2256  v =  0.0000  0.0000  0.0000  0.0000  0.0000  0.0000  0.0000  1.0000  0.0000  0.0000      0.0000  0.0000  0.0000  0.0000  0.0000  0.0000  0.0000  0.0000  0.0000  0.0000
  o =  0.2256  v =  0.0000  0.0000  0.0000  0.0000  0.0000  1.0000  0.0000  0.0000  0.0000  0.0000      0.0000  0.0000  0.0000  0.0000  0.0000  0.0000  0.0000  0.0000  0.0000  0.0000
  o =  0.2256  v =  0.0000  0.0000  0.0000  0.0000  0.0000  0.0000  1.0000  0.0000  0.0000  0.0000      0.0000  0.0000  0.0000  0.0000  0.0000  0.0000  0.0000  0.0000  0.0000  0.0000
  o =  0.2256  v =  0.0000  0.0000  0.0000  0.0000  0.0000  0.0000  0.0000  0.0000  1.0000  0.0000      0.0000  0.0000  0.0000  0.0000  0.0000  0.0000  0.0000  0.0000  0.0000  0.0000
  o =  0.2256  v =  0.0000  0.0000  0.0000  0.0000  0.0000  0.0000  0.0000  0.0000  0.0000  1.0000      0.0000  0.0000  0.0000  0.0000  0.0000  0.0000  0.0000  0.0000  0.0000  0.0000
  o =  0.8272  v =  0.0000  1.0000  0.0000  0.0000  0.0000  0.0000  0.0000  0.0000  0.0000  0.0000      0.0000  0.0000  0.0000  0.0000  0.0000  0.0000  0.0000  0.0000  0.0000  0.0000
  o =  0.8272  v =  0.0000  0.0000  1.0000  0.0000  0.0000  0.0000  0.0000  0.0000  0.0000  0.0000      0.0000  0.0000  0.0000  0.0000  0.0000  0.0000  0.0000  0.0000  0.0000  0.0000
  o =  0.8272  v =  1.0000  0.0000  0.0000  0.0000  0.0000  0.0000  0.0000  0.0000  0.0000  0.0000      0.0000  0.0000  0.0000  0.0000  0.0000  0.0000  0.0000  0.0000  0.0000  0.0000
  o =  0.8272  v =  0.0000  0.0000  0.0000  1.0000  0.0000  0.0000  0.0000  0.0000  0.0000  0.0000      0.0000  0.0000  0.0000  0.0000  0.0000  0.0000  0.0000  0.0000  0.0000  0.0000
  o =  0.8272  v =  0.0000  0.0000  0.0000  0.0000  1.0000  0.0000  0.0000  0.0000  0.0000  0.0000      0.0000  0.0000  0.0000  0.0000  0.0000  0.0000  0.0000  0.0000  0.0000  0.0000
atom =   5  type =  2  l = 2
 
 onsite density matrix
 
spin component  1
 
  0.8272  0.0000  0.0000  0.0000  0.0000
  0.0000  0.8272  0.0000  0.0000  0.0000
  0.0000  0.0000  0.8272  0.0000  0.0000
  0.0000  0.0000  0.0000  0.8272  0.0000
  0.0000  0.0000  0.0000  0.0000  0.8272
 
spin component  2
 
  0.2256  0.0000  0.0000  0.0000  0.0000
  0.0000  0.2256  0.0000  0.0000  0.0000
  0.0000  0.0000  0.2256  0.0000  0.0000
  0.0000  0.0000  0.0000  0.2256  0.0000
  0.0000  0.0000  0.0000  0.0000  0.2256
 
 occupancies and eigenvectors
 
  o =  0.2256  v =  0.0000  0.0000  0.0000  0.0000  0.0000  0.0000  0.0000  1.0000  0.0000  0.0000      0.0000  0.0000  0.0000  0.0000  0.0000  0.0000  0.0000  0.0000  0.0000  0.0000
  o =  0.2256  v =  0.0000  0.0000  0.0000  0.0000  0.0000  1.0000  0.0000  0.0000  0.0000  0.0000      0.0000  0.0000  0.0000  0.0000  0.0000  0.0000  0.0000  0.0000  0.0000  0.0000
  o =  0.2256  v =  0.0000  0.0000  0.0000  0.0000  0.0000  0.0000  1.0000  0.0000  0.0000  0.0000      0.0000  0.0000  0.0000  0.0000  0.0000  0.0000  0.0000  0.0000  0.0000  0.0000
  o =  0.2256  v =  0.0000  0.0000  0.0000  0.0000  0.0000  0.0000  0.0000  0.0000  1.0000  0.0000      0.0000  0.0000  0.0000  0.0000  0.0000  0.0000  0.0000  0.0000  0.0000  0.0000
  o =  0.2256  v =  0.0000  0.0000  0.0000  0.0000  0.0000  0.0000  0.0000  0.0000  0.0000  1.0000      0.0000  0.0000  0.0000  0.0000  0.0000  0.0000  0.0000  0.0000  0.0000  0.0000
  o =  0.8272  v =  0.0000  1.0000  0.0000  0.0000  0.0000  0.0000  0.0000  0.0000  0.0000  0.0000      0.0000  0.0000  0.0000  0.0000  0.0000  0.0000  0.0000  0.0000  0.0000  0.0000
  o =  0.8272  v =  0.0000  0.0000  1.0000  0.0000  0.0000  0.0000  0.0000  0.0000  0.0000  0.0000      0.0000  0.0000  0.0000  0.0000  0.0000  0.0000  0.0000  0.0000  0.0000  0.0000
  o =  0.8272  v =  1.0000  0.0000  0.0000  0.0000  0.0000  0.0000  0.0000  0.0000  0.0000  0.0000      0.0000  0.0000  0.0000  0.0000  0.0000  0.0000  0.0000  0.0000  0.0000  0.0000
  o =  0.8272  v =  0.0000  0.0000  0.0000  1.0000  0.0000  0.0000  0.0000  0.0000  0.0000  0.0000      0.0000  0.0000  0.0000  0.0000  0.0000  0.0000  0.0000  0.0000  0.0000  0.0000
  o =  0.8272  v =  0.0000  0.0000  0.0000  0.0000  1.0000  0.0000  0.0000  0.0000  0.0000  0.0000      0.0000  0.0000  0.0000  0.0000  0.0000  0.0000  0.0000  0.0000  0.0000  0.0000
atom =   6  type =  3  l = 2
 
 onsite density matrix
 
spin component  1
 
  1.1008  0.0000  0.0000  0.0000  0.0000
  0.0000  1.1008  0.0000  0.0000  0.0000
  0.0000  0.0000  1.1008  0.0000  0.0000
  0.0000  0.0000  0.0000  1.1008  0.0000
  0.0000  0.0000  0.0000  0.0000  1.1008
 
spin component  2
 
  0.5927  0.0000  0.0000  0.0000  0.0000
  0.0000  0.5927  0.0000  0.0000  0.0000
  0.0000  0.0000  0.5927  0.0000  0.0000
  0.0000  0.0000  0.0000  0.5927  0.0000
  0.0000  0.0000  0.0000  0.0000  0.5927
 
 occupancies and eigenvectors
 
  o =  0.5927  v =  0.0000  0.0000  0.0000  0.0000  0.0000  1.0000  0.0000  0.0000  0.0000  0.0000      0.0000  0.0000  0.0000  0.0000  0.0000  0.0000  0.0000  0.0000  0.0000  0.0000
  o =  0.5927  v =  0.0000  0.0000  0.0000  0.0000  0.0000  0.0000  1.0000  0.0000  0.0000  0.0000      0.0000  0.0000  0.0000  0.0000  0.0000  0.0000  0.0000  0.0000  0.0000  0.0000
  o =  0.5927  v =  0.0000  0.0000  0.0000  0.0000  0.0000  0.0000  0.0000  1.0000  0.0000  0.0000      0.0000  0.0000  0.0000  0.0000  0.0000  0.0000  0.0000  0.0000  0.0000  0.0000
  o =  0.5927  v =  0.0000  0.0000  0.0000  0.0000  0.0000  0.0000  0.0000  0.0000  1.0000  0.0000      0.0000  0.0000  0.0000  0.0000  0.0000  0.0000  0.0000  0.0000  0.0000  0.0000
  o =  0.5927  v =  0.0000  0.0000  0.0000  0.0000  0.0000  0.0000  0.0000  0.0000  0.0000  1.0000      0.0000  0.0000  0.0000  0.0000  0.0000  0.0000  0.0000  0.0000  0.0000  0.0000
  o =  1.1008  v =  1.0000  0.0000  0.0000  0.0000  0.0000  0.0000  0.0000  0.0000  0.0000  0.0000      0.0000  0.0000  0.0000  0.0000  0.0000  0.0000  0.0000  0.0000  0.0000  0.0000
  o =  1.1008  v =  0.0000  1.0000  0.0000  0.0000  0.0000  0.0000  0.0000  0.0000  0.0000  0.0000      0.0000  0.0000  0.0000  0.0000  0.0000  0.0000  0.0000  0.0000  0.0000  0.0000
  o =  1.1008  v =  0.0000  0.0000  1.0000  0.0000  0.0000  0.0000  0.0000  0.0000  0.0000  0.0000      0.0000  0.0000  0.0000  0.0000  0.0000  0.0000  0.0000  0.0000  0.0000  0.0000
  o =  1.1008  v =  0.0000  0.0000  0.0000  1.0000  0.0000  0.0000  0.0000  0.0000  0.0000  0.0000      0.0000  0.0000  0.0000  0.0000  0.0000  0.0000  0.0000  0.0000  0.0000  0.0000
  o =  1.1008  v =  0.0000  0.0000  0.0000  0.0000  1.0000  0.0000  0.0000  0.0000  0.0000  0.0000      0.0000  0.0000  0.0000  0.0000  0.0000  0.0000  0.0000  0.0000  0.0000  0.0000
atom =   7  type =  4  l = 0
 
 onsite density matrix
 
spin component  1
 
  0.8190
 
spin component  2
 
  0.8190
 
 occupancies and eigenvectors
 
  o =  0.8190  v =  1.0000  0.0000      0.0000  0.0000
  o =  0.8190  v =  0.0000  1.0000      0.0000  0.0000
atom =   8  type =  4  l = 0
 
 onsite density matrix
 
spin component  1
 
  0.8190
 
spin component  2
 
  0.8190
 
 occupancies and eigenvectors
 
  o =  0.8190  v =  1.0000  0.0000      0.0000  0.0000
  o =  0.8190  v =  0.0000  1.0000      0.0000  0.0000
atom =   9  type =  4  l = 0
 
 onsite density matrix
 
spin component  1
 
  0.8190
 
spin component  2
 
  0.8190
 
 occupancies and eigenvectors
 
  o =  0.8190  v =  1.0000  0.0000      0.0000  0.0000
  o =  0.8190  v =  0.0000  1.0000      0.0000  0.0000
atom =  10  type =  4  l = 0
 
 onsite density matrix
 
spin component  1
 
  0.8190
 
spin component  2
 
  0.8190
 
 occupancies and eigenvectors
 
  o =  0.8190  v =  1.0000  0.0000      0.0000  0.0000
  o =  0.8190  v =  0.0000  1.0000      0.0000  0.0000
atom =  11  type =  4  l = 0
 
 onsite density matrix
 
spin component  1
 
  0.8190
 
spin component  2
 
  0.8190
 
 occupancies and eigenvectors
 
  o =  0.8190  v =  1.0000  0.0000      0.0000  0.0000
  o =  0.8190  v =  0.0000  1.0000      0.0000  0.0000
atom =  12  type =  4  l = 0
 
 onsite density matrix
 
spin component  1
 
  0.8190
 
spin component  2
 
  0.8190
 
 occupancies and eigenvectors
 
  o =  0.8190  v =  1.0000  0.0000      0.0000  0.0000
  o =  0.8190  v =  0.0000  1.0000      0.0000  0.0000
atom =  13  type =  4  l = 0
 
 onsite density matrix
 
spin component  1
 
  0.8190
 
spin component  2
 
  0.8190
 
 occupancies and eigenvectors
 
  o =  0.8190  v =  1.0000  0.0000      0.0000  0.0000
  o =  0.8190  v =  0.0000  1.0000      0.0000  0.0000
atom =  14  type =  4  l = 0
 
 onsite density matrix
 
spin component  1
 
  0.8190
 
spin component  2
 
  0.8190
 
 occupancies and eigenvectors
 
  o =  0.8190  v =  1.0000  0.0000      0.0000  0.0000
  o =  0.8190  v =  0.0000  1.0000      0.0000  0.0000
atom =  15  type =  4  l = 0
 
 onsite density matrix
 
spin component  1
 
  0.8190
 
spin component  2
 
  0.8190
 
 occupancies and eigenvectors
 
  o =  0.8190  v =  1.0000  0.0000      0.0000  0.0000
  o =  0.8190  v =  0.0000  1.0000      0.0000  0.0000
     EDDAV:  cpu time    0.8722: real time    0.8763
 BZINTS: Fermi energy: 26.574194;111.000000 electrons
         Band energy:1464.217820;  BLOECHL correction: -0.594266
       DOS:  cpu time    0.0114: real time    0.0119
    --------------------------------------------
      LOOP:  cpu time    0.9401: real time    0.9453

 eigenvalue-minimisations  :  2792
 total energy-change (2. order) : 0.1587205E+04  (-0.4181082E+04)
 number of electron     111.0000000 magnetization      11.0000000
 augmentation part      111.0000000 magnetization      11.0000000

 Free energy of the ion-electron system (eV)
  ---------------------------------------------------
  alpha Z        PSCENC =       487.45798181
  Ewald energy   TEWEN  =     -7533.33929624
  -Hartree energ DENC   =     -1574.03218494
  -exchange      EXHF   =         0.00000000
  -V(xc)+E(xc)   XCENC  =       355.26429826
  PAW double counting   =      6822.26835318    -6834.95433714
  entropy T*S    EENTRO =         0.00000000
  eigenvalues    EBANDS =      1464.21782033
  atomic energy  EATOM  =      8400.32230685
  Solvation  Ediel_sol  =         0.00000000
  ---------------------------------------------------
  free energy    TOTEN  =      1587.20494210 eV

  energy without entropy =     1587.20494210  energy(sigma->0) =     1587.20494210


--------------------------------------------------------------------------------------------------------




--------------------------------------- Iteration      1(   2)  ---------------------------------------


     EDDAV:  cpu time    0.9262: real time    0.9297
 BZINTS: Fermi energy: 14.904979;111.000000 electrons
         Band energy: 326.508253;  BLOECHL correction: -0.215901
       DOS:  cpu time    0.0119: real time    0.0120
    --------------------------------------------
      LOOP:  cpu time    0.9381: real time    0.9417

 eigenvalue-minimisations  :  3008
 total energy-change (2. order) :-0.1137710E+04  (-0.1039225E+04)
 number of electron     111.0000000 magnetization      11.0000000
 augmentation part      111.0000000 magnetization      11.0000000

 Free energy of the ion-electron system (eV)
  ---------------------------------------------------
  alpha Z        PSCENC =       487.45798181
  Ewald energy   TEWEN  =     -7533.33929624
  -Hartree energ DENC   =     -1574.03218494
  -exchange      EXHF   =         0.00000000
  -V(xc)+E(xc)   XCENC  =       355.26429826
  PAW double counting   =      6822.26835318    -6834.95433714
  entropy T*S    EENTRO =         0.00000000
  eigenvalues    EBANDS =       326.50825324
  atomic energy  EATOM  =      8400.32230685
  Solvation  Ediel_sol  =         0.00000000
  ---------------------------------------------------
  free energy    TOTEN  =       449.49537501 eV

  energy without entropy =      449.49537501  energy(sigma->0) =      449.49537501


--------------------------------------------------------------------------------------------------------




--------------------------------------- Iteration      1(   3)  ---------------------------------------


     EDDAV:  cpu time    1.0444: real time    1.0496
 BZINTS: Fermi energy: 11.731659;111.000000 electrons
         Band energy: -96.951953;  BLOECHL correction: -0.021892
       DOS:  cpu time    0.0124: real time    0.0124
    --------------------------------------------
      LOOP:  cpu time    1.0568: real time    1.0620

 eigenvalue-minimisations  :  3456
 total energy-change (2. order) :-0.4234602E+03  (-0.3983513E+03)
 number of electron     111.0000000 magnetization      11.0000000
 augmentation part      111.0000000 magnetization      11.0000000

 Free energy of the ion-electron system (eV)
  ---------------------------------------------------
  alpha Z        PSCENC =       487.45798181
  Ewald energy   TEWEN  =     -7533.33929624
  -Hartree energ DENC   =     -1574.03218494
  -exchange      EXHF   =         0.00000000
  -V(xc)+E(xc)   XCENC  =       355.26429826
  PAW double counting   =      6822.26835318    -6834.95433714
  entropy T*S    EENTRO =         0.00000000
  eigenvalues    EBANDS =       -96.95195298
  atomic energy  EATOM  =      8400.32230685
  Solvation  Ediel_sol  =         0.00000000
  ---------------------------------------------------
  free energy    TOTEN  =        26.03516879 eV

  energy without entropy =       26.03516879  energy(sigma->0) =       26.03516879


--------------------------------------------------------------------------------------------------------




--------------------------------------- Iteration      1(   4)  ---------------------------------------


     EDDAV:  cpu time    1.2632: real time    1.2673
 BZINTS: Fermi energy: 11.198849;111.000000 electrons
         Band energy:-233.859827;  BLOECHL correction: -0.020147
       DOS:  cpu time    0.0127: real time    0.0127
    --------------------------------------------
      LOOP:  cpu time    1.2759: real time    1.2800

 eigenvalue-minimisations  :  4408
 total energy-change (2. order) :-0.1369079E+03  (-0.1320014E+03)
 number of electron     111.0000000 magnetization      11.0000000
 augmentation part      111.0000000 magnetization      11.0000000

 Free energy of the ion-electron system (eV)
  ---------------------------------------------------
  alpha Z        PSCENC =       487.45798181
  Ewald energy   TEWEN  =     -7533.33929624
  -Hartree energ DENC   =     -1574.03218494
  -exchange      EXHF   =         0.00000000
  -V(xc)+E(xc)   XCENC  =       355.26429826
  PAW double counting   =      6822.26835318    -6834.95433714
  entropy T*S    EENTRO =         0.00000000
  eigenvalues    EBANDS =      -233.85982739
  atomic energy  EATOM  =      8400.32230685
  Solvation  Ediel_sol  =         0.00000000
  ---------------------------------------------------
  free energy    TOTEN  =      -110.87270562 eV

  energy without entropy =     -110.87270562  energy(sigma->0) =     -110.87270562


--------------------------------------------------------------------------------------------------------




--------------------------------------- Iteration      1(   5)  ---------------------------------------


     EDDAV:  cpu time    1.3356: real time    1.3395
 BZINTS: Fermi energy: 10.781842;111.000000 electrons
         Band energy:-253.897879;  BLOECHL correction: -0.051767
       DOS:  cpu time    0.0096: real time    0.0097
    CHARGE:  cpu time    0.0634: real time    0.0637
    MIXING:  cpu time    0.0024: real time    0.0024
    --------------------------------------------
      LOOP:  cpu time    1.4110: real time    1.4154

 eigenvalue-minimisations  :  4712
 total energy-change (2. order) :-0.2003805E+02  (-0.1941414E+02)
 number of electron     110.9999985 magnetization       9.1474617
 augmentation part       12.4947106 magnetization       6.2463918

 Broyden mixing:
  rms(total) = 0.47292E+01    rms(broyden)= 0.47288E+01
  rms(prec ) = 0.64788E+01
  weight for this iteration     100.00

 Free energy of the ion-electron system (eV)
  ---------------------------------------------------
  alpha Z        PSCENC =       487.45798181
  Ewald energy   TEWEN  =     -7533.33929624
  -Hartree energ DENC   =     -1574.03218494
  -exchange      EXHF   =         0.00000000
  -V(xc)+E(xc)   XCENC  =       355.26429826
  PAW double counting   =      6822.26835318    -6834.95433714
  entropy T*S    EENTRO =         0.00000000
  eigenvalues    EBANDS =      -253.89787914
  atomic energy  EATOM  =      8400.32230685
  Solvation  Ediel_sol  =         0.00000000
  ---------------------------------------------------
  free energy    TOTEN  =      -130.91075737 eV

  energy without entropy =     -130.91075737  energy(sigma->0) =     -130.91075737


--------------------------------------------------------------------------------------------------------




--------------------------------------- Iteration      1(   6)  ---------------------------------------


    POTLOK:  cpu time    0.0404: real time    0.0417
    SETDIJ:  cpu time    0.0101: real time    0.0101
atom =   1  type =  1  l = 0
 
 onsite density matrix
 
spin component  1
 
  1.0576
 
spin component  2
 
  1.0574
 
 occupancies and eigenvectors
 
  o =  1.0574  v =  0.0000  1.0000      0.0000  0.0000
  o =  1.0576  v =  1.0000  0.0000      0.0000  0.0000
atom =   2  type =  1  l = 0
 
 onsite density matrix
 
spin component  1
 
  1.0576
 
spin component  2
 
  1.0574
 
 occupancies and eigenvectors
 
  o =  1.0574  v =  0.0000  1.0000      0.0000  0.0000
  o =  1.0576  v =  1.0000  0.0000      0.0000  0.0000
atom =   3  type =  1  l = 0
 
 onsite density matrix
 
spin component  1
 
  1.0571
 
spin component  2
 
  1.0567
 
 occupancies and eigenvectors
 
  o =  1.0567  v =  0.0000  1.0000      0.0000  0.0000
  o =  1.0571  v =  1.0000  0.0000      0.0000  0.0000
atom =   4  type =  2  l = 2
 
 onsite density matrix
 
spin component  1
 
  0.9890 -0.0010  0.0004  0.0010  0.0000
 -0.0010  0.9890  0.0002 -0.0010 -0.0003
  0.0004  0.0002  0.3874 -0.0002  0.0000
  0.0010 -0.0010 -0.0002  0.9890 -0.0003
  0.0000 -0.0003  0.0000 -0.0003  0.3874
 
spin component  2
 
  0.0094  0.0005 -0.0006 -0.0005 -0.0000
  0.0005  0.0094 -0.0003  0.0005  0.0005
 -0.0006 -0.0003  0.4191  0.0003  0.0000
 -0.0005  0.0005  0.0003  0.0094  0.0005
 -0.0000  0.0005  0.0000  0.0005  0.4191
 
 occupancies and eigenvectors
 
  o =  0.0083  v =  0.0000  0.0000  0.0000  0.0000  0.0000  0.5774 -0.5774  0.0000  0.5774  0.0000      0.0000  0.0000  0.0000  0.0000  0.0000  0.0000  0.0000  0.0000  0.0000  0.0000
  o =  0.0100  v =  0.0000  0.0000  0.0000  0.0000  0.0000  0.8165  0.4083  0.0017 -0.4082 -0.0000      0.0000  0.0000  0.0000  0.0000  0.0000  0.0000  0.0000  0.0000  0.0000  0.0000
  o =  0.0100  v =  0.0000  0.0000  0.0000  0.0000  0.0000 -0.0000  0.7071 -0.0000  0.7071 -0.0017      0.0000  0.0000  0.0000  0.0000  0.0000  0.0000  0.0000  0.0000  0.0000  0.0000
  o =  0.3874  v = -0.0007 -0.0004  0.9914  0.0003 -0.1307  0.0000  0.0000  0.0000  0.0000  0.0000      0.0000  0.0000  0.0000  0.0000  0.0000  0.0000  0.0000  0.0000  0.0000  0.0000
  o =  0.3874  v = -0.0001  0.0005  0.1307  0.0006  0.9914  0.0000  0.0000  0.0000  0.0000  0.0000      0.0000  0.0000  0.0000  0.0000  0.0000  0.0000  0.0000  0.0000  0.0000  0.0000
  o =  0.4191  v =  0.0000  0.0000  0.0000  0.0000  0.0000  0.0013  0.0007 -0.9980 -0.0006  0.0634      0.0000  0.0000  0.0000  0.0000  0.0000  0.0000  0.0000  0.0000  0.0000  0.0000
  o =  0.4191  v =  0.0000  0.0000  0.0000  0.0000  0.0000 -0.0001  0.0011  0.0634  0.0012  0.9980      0.0000  0.0000  0.0000  0.0000  0.0000  0.0000  0.0000  0.0000  0.0000  0.0000
  o =  0.9881  v = -0.8165 -0.4082 -0.0008  0.4082  0.0000  0.0000  0.0000  0.0000  0.0000  0.0000      0.0000  0.0000  0.0000  0.0000  0.0000  0.0000  0.0000  0.0000  0.0000  0.0000
  o =  0.9881  v = -0.0000 -0.7071 -0.0000 -0.7071  0.0008  0.0000  0.0000  0.0000  0.0000  0.0000      0.0000  0.0000  0.0000  0.0000  0.0000  0.0000  0.0000  0.0000  0.0000  0.0000
  o =  0.9910  v =  0.5774 -0.5774 -0.0000  0.5774  0.0000  0.0000  0.0000  0.0000  0.0000  0.0000      0.0000  0.0000  0.0000  0.0000  0.0000  0.0000  0.0000  0.0000  0.0000  0.0000
atom =   5  type =  2  l = 2
 
 onsite density matrix
 
spin component  1
 
  0.9890 -0.0010  0.0004  0.0010  0.0000
 -0.0010  0.9890  0.0002 -0.0010 -0.0003
  0.0004  0.0002  0.3874 -0.0002 -0.0000
  0.0010 -0.0010 -0.0002  0.9890 -0.0003
  0.0000 -0.0003 -0.0000 -0.0003  0.3874
 
spin component  2
 
  0.0094  0.0005 -0.0006 -0.0005 -0.0000
  0.0005  0.0094 -0.0003  0.0005  0.0005
 -0.0006 -0.0003  0.4191  0.0003 -0.0000
 -0.0005  0.0005  0.0003  0.0094  0.0005
 -0.0000  0.0005 -0.0000  0.0005  0.4191
 
 occupancies and eigenvectors
 
  o =  0.0083  v =  0.0000  0.0000  0.0000  0.0000  0.0000  0.5774 -0.5774  0.0000  0.5774  0.0000      0.0000  0.0000  0.0000  0.0000  0.0000  0.0000  0.0000  0.0000  0.0000  0.0000
  o =  0.0100  v =  0.0000  0.0000  0.0000  0.0000  0.0000  0.8093  0.4982  0.0016 -0.3112 -0.0002      0.0000  0.0000  0.0000  0.0000  0.0000  0.0000  0.0000  0.0000  0.0000  0.0000
  o =  0.0100  v =  0.0000  0.0000  0.0000  0.0000  0.0000 -0.1080  0.6469 -0.0002  0.7549 -0.0016      0.0000  0.0000  0.0000  0.0000  0.0000  0.0000  0.0000  0.0000  0.0000  0.0000
  o =  0.3874  v = -0.0007 -0.0003  0.9959  0.0004  0.0900  0.0000  0.0000  0.0000  0.0000  0.0000      0.0000  0.0000  0.0000  0.0000  0.0000  0.0000  0.0000  0.0000  0.0000  0.0000
  o =  0.3874  v =  0.0001  0.0006 -0.0900  0.0005  0.9959  0.0000  0.0000  0.0000  0.0000  0.0000      0.0000  0.0000  0.0000  0.0000  0.0000  0.0000  0.0000  0.0000  0.0000  0.0000
  o =  0.4191  v =  0.0000  0.0000  0.0000  0.0000  0.0000  0.0014  0.0007 -1.0000 -0.0007 -0.0000      0.0000  0.0000  0.0000  0.0000  0.0000  0.0000  0.0000  0.0000  0.0000  0.0000
  o =  0.4191  v =  0.0000  0.0000  0.0000  0.0000  0.0000  0.0000  0.0012 -0.0000  0.0012  1.0000      0.0000  0.0000  0.0000  0.0000  0.0000  0.0000  0.0000  0.0000  0.0000  0.0000
  o =  0.9881  v = -0.5225  0.2822 -0.0005  0.8046 -0.0006  0.0000  0.0000  0.0000  0.0000  0.0000      0.0000  0.0000  0.0000  0.0000  0.0000  0.0000  0.0000  0.0000  0.0000  0.0000
  o =  0.9881  v =  0.6275  0.7662  0.0006  0.1387 -0.0005  0.0000  0.0000  0.0000  0.0000  0.0000      0.0000  0.0000  0.0000  0.0000  0.0000  0.0000  0.0000  0.0000  0.0000  0.0000
  o =  0.9910  v = -0.5774  0.5774  0.0000 -0.5774 -0.0000  0.0000  0.0000  0.0000  0.0000  0.0000      0.0000  0.0000  0.0000  0.0000  0.0000  0.0000  0.0000  0.0000  0.0000  0.0000
atom =   6  type =  3  l = 2
 
 onsite density matrix
 
spin component  1
 
  0.8866  0.0017  0.0047 -0.0017  0.0000
  0.0017  0.8866  0.0024  0.0017 -0.0041
  0.0047  0.0024  1.3010 -0.0024 -0.0000
 -0.0017  0.0017 -0.0024  0.8866 -0.0041
  0.0000 -0.0041 -0.0000 -0.0041  1.3010
 
spin component  2
 
  0.8259 -0.0032 -0.0073  0.0032 -0.0000
 -0.0032  0.8259 -0.0037 -0.0032  0.0064
 -0.0073 -0.0037  0.1910  0.0037 -0.0000
  0.0032 -0.0032  0.0037  0.8259  0.0064
 -0.0000  0.0064 -0.0000  0.0064  0.1910
 
 occupancies and eigenvectors
 
  o =  0.1908  v =  0.0000  0.0000  0.0000  0.0000  0.0000  0.0002 -0.0100  0.0169 -0.0102  0.9998      0.0000  0.0000  0.0000  0.0000  0.0000  0.0000  0.0000  0.0000  0.0000  0.0000
  o =  0.1908  v =  0.0000  0.0000  0.0000  0.0000  0.0000 -0.0116 -0.0060 -0.9998  0.0056  0.0169      0.0000  0.0000  0.0000  0.0000  0.0000  0.0000  0.0000  0.0000  0.0000  0.0000
  o =  0.8228  v =  0.0000  0.0000  0.0000  0.0000  0.0000 -0.0000  0.7070 -0.0000  0.7070  0.0142      0.0000  0.0000  0.0000  0.0000  0.0000  0.0000  0.0000  0.0000  0.0000  0.0000
  o =  0.8228  v =  0.0000  0.0000  0.0000  0.0000  0.0000 -0.8164 -0.4082  0.0142  0.4082  0.0000      0.0000  0.0000  0.0000  0.0000  0.0000  0.0000  0.0000  0.0000  0.0000  0.0000
  o =  0.8324  v =  0.0000  0.0000  0.0000  0.0000  0.0000  0.5774 -0.5774 -0.0000  0.5774  0.0000      0.0000  0.0000  0.0000  0.0000  0.0000  0.0000  0.0000  0.0000  0.0000  0.0000
  o =  0.8832  v = -0.5774  0.5774  0.0000 -0.5774 -0.0000  0.0000  0.0000  0.0000  0.0000  0.0000      0.0000  0.0000  0.0000  0.0000  0.0000  0.0000  0.0000  0.0000  0.0000  0.0000
  o =  0.8882  v =  0.8065  0.2934 -0.0138 -0.5131 -0.0022  0.0000  0.0000  0.0000  0.0000  0.0000      0.0000  0.0000  0.0000  0.0000  0.0000  0.0000  0.0000  0.0000  0.0000  0.0000
  o =  0.8882  v =  0.1269  0.7619 -0.0022  0.6350  0.0138  0.0000  0.0000  0.0000  0.0000  0.0000      0.0000  0.0000  0.0000  0.0000  0.0000  0.0000  0.0000  0.0000  0.0000  0.0000
  o =  1.3011  v =  0.0000 -0.0099 -0.0000 -0.0099  0.9999  0.0000  0.0000  0.0000  0.0000  0.0000      0.0000  0.0000  0.0000  0.0000  0.0000  0.0000  0.0000  0.0000  0.0000  0.0000
  o =  1.3011  v = -0.0114 -0.0057 -0.9999  0.0057 -0.0000  0.0000  0.0000  0.0000  0.0000  0.0000      0.0000  0.0000  0.0000  0.0000  0.0000  0.0000  0.0000  0.0000  0.0000  0.0000
atom =   7  type =  4  l = 0
 
 onsite density matrix
 
spin component  1
 
  0.8165
 
spin component  2
 
  0.8134
 
 occupancies and eigenvectors
 
  o =  0.8134  v =  0.0000  1.0000      0.0000  0.0000
  o =  0.8165  v =  1.0000  0.0000      0.0000  0.0000
atom =   8  type =  4  l = 0
 
 onsite density matrix
 
spin component  1
 
  0.8129
 
spin component  2
 
  0.8169
 
 occupancies and eigenvectors
 
  o =  0.8129  v =  1.0000  0.0000      0.0000  0.0000
  o =  0.8169  v =  0.0000  1.0000      0.0000  0.0000
atom =   9  type =  4  l = 0
 
 onsite density matrix
 
spin component  1
 
  0.8165
 
spin component  2
 
  0.8134
 
 occupancies and eigenvectors
 
  o =  0.8134  v =  0.0000  1.0000      0.0000  0.0000
  o =  0.8165  v =  1.0000  0.0000      0.0000  0.0000
atom =  10  type =  4  l = 0
 
 onsite density matrix
 
spin component  1
 
  0.8165
 
spin component  2
 
  0.8134
 
 occupancies and eigenvectors
 
  o =  0.8134  v =  0.0000  1.0000      0.0000  0.0000
  o =  0.8165  v =  1.0000  0.0000      0.0000  0.0000
atom =  11  type =  4  l = 0
 
 onsite density matrix
 
spin component  1
 
  0.8165
 
spin component  2
 
  0.8134
 
 occupancies and eigenvectors
 
  o =  0.8134  v =  0.0000  1.0000      0.0000  0.0000
  o =  0.8165  v =  1.0000  0.0000      0.0000  0.0000
atom =  12  type =  4  l = 0
 
 onsite density matrix
 
spin component  1
 
  0.8129
 
spin component  2
 
  0.8169
 
 occupancies and eigenvectors
 
  o =  0.8129  v =  1.0000  0.0000      0.0000  0.0000
  o =  0.8169  v =  0.0000  1.0000      0.0000  0.0000
atom =  13  type =  4  l = 0
 
 onsite density matrix
 
spin component  1
 
  0.8165
 
spin component  2
 
  0.8134
 
 occupancies and eigenvectors
 
  o =  0.8134  v =  0.0000  1.0000      0.0000  0.0000
  o =  0.8165  v =  1.0000  0.0000      0.0000  0.0000
atom =  14  type =  4  l = 0
 
 onsite density matrix
 
spin component  1
 
  0.8165
 
spin component  2
 
  0.8134
 
 occupancies and eigenvectors
 
  o =  0.8134  v =  0.0000  1.0000      0.0000  0.0000
  o =  0.8165  v =  1.0000  0.0000      0.0000  0.0000
atom =  15  type =  4  l = 0
 
 onsite density matrix
 
spin component  1
 
  0.8129
 
spin component  2
 
  0.8169
 
 occupancies and eigenvectors
 
  o =  0.8129  v =  1.0000  0.0000      0.0000  0.0000
  o =  0.8169  v =  0.0000  1.0000      0.0000  0.0000
    EDDIAG:  cpu time    0.1353: real time    0.1383
  RMM-DIIS:  cpu time    0.9843: real time    0.9873
    ORTHCH:  cpu time    0.0104: real time    0.0105
 BZINTS: Fermi energy:  8.392964;111.000000 electrons
         Band energy:-212.059950;  BLOECHL correction: -0.023712
       DOS:  cpu time    0.0113: real time    0.0113
    CHARGE:  cpu time    0.0612: real time    0.0613
    MIXING:  cpu time    0.0022: real time    0.0024
    --------------------------------------------
      LOOP:  cpu time    1.2553: real time    1.2629

 eigenvalue-minimisations  :  4494
 total energy-change (2. order) : 0.1290278E+02  (-0.3716829E+02)
 number of electron     110.9999989 magnetization       9.1068010
 augmentation part       15.1372613 magnetization       6.4456614

 Broyden mixing:
  rms(total) = 0.77648E+01    rms(broyden)= 0.77647E+01
  rms(prec ) = 0.79233E+01
  weight for this iteration     100.00

 eigenvalues of (default mixing * dielectric matrix)
  average eigenvalue GAMMA=   0.0041
  0.0041

 Free energy of the ion-electron system (eV)
  ---------------------------------------------------
  alpha Z        PSCENC =       487.45798181
  Ewald energy   TEWEN  =     -7533.33929624
  -Hartree energ DENC   =     -1619.20395342
  -exchange      EXHF   =         0.00000000
  -V(xc)+E(xc)   XCENC  =       362.66512189
  PAW double counting   =      7590.58289707    -7594.43309015
  entropy T*S    EENTRO =         0.00000000
  eigenvalues    EBANDS =      -212.05994978
  atomic energy  EATOM  =      8400.32230685
  Solvation  Ediel_sol  =         0.00000000
  ---------------------------------------------------
  free energy    TOTEN  =      -118.00798197 eV

  energy without entropy =     -118.00798197  energy(sigma->0) =     -118.00798197


--------------------------------------------------------------------------------------------------------




--------------------------------------- Iteration      1(   7)  ---------------------------------------


    POTLOK:  cpu time    0.0409: real time    0.0426
    SETDIJ:  cpu time    0.0101: real time    0.0101
atom =   1  type =  1  l = 0
 
 onsite density matrix
 
spin component  1
 
  1.0482
 
spin component  2
 
  1.0488
 
 occupancies and eigenvectors
 
  o =  1.0482  v =  1.0000  0.0000      0.0000  0.0000
  o =  1.0488  v =  0.0000  1.0000      0.0000  0.0000
atom =   2  type =  1  l = 0
 
 onsite density matrix
 
spin component  1
 
  1.0482
 
spin component  2
 
  1.0488
 
 occupancies and eigenvectors
 
  o =  1.0482  v =  1.0000  0.0000      0.0000  0.0000
  o =  1.0488  v =  0.0000  1.0000      0.0000  0.0000
atom =   3  type =  1  l = 0
 
 onsite density matrix
 
spin component  1
 
  1.0477
 
spin component  2
 
  1.0481
 
 occupancies and eigenvectors
 
  o =  1.0477  v =  1.0000  0.0000      0.0000  0.0000
  o =  1.0481  v =  0.0000  1.0000      0.0000  0.0000
atom =   4  type =  2  l = 2
 
 onsite density matrix
 
spin component  1
 
  0.9546 -0.0011  0.0002  0.0011 -0.0000
 -0.0011  0.9546  0.0001 -0.0011 -0.0002
  0.0002  0.0001  0.4697 -0.0001  0.0000
  0.0011 -0.0011 -0.0001  0.9546 -0.0002
 -0.0000 -0.0002  0.0000 -0.0002  0.4697
 
spin component  2
 
  0.0543  0.0010 -0.0005 -0.0010  0.0000
  0.0010  0.0543 -0.0003  0.0010  0.0004
 -0.0005 -0.0003  0.3598  0.0003  0.0000
 -0.0010  0.0010  0.0003  0.0543  0.0004
  0.0000  0.0004  0.0000  0.0004  0.3598
 
 occupancies and eigenvectors
 
  o =  0.0522  v =  0.0000  0.0000  0.0000  0.0000  0.0000 -0.5774  0.5774  0.0000 -0.5774 -0.0000      0.0000  0.0000  0.0000  0.0000  0.0000  0.0000  0.0000  0.0000  0.0000  0.0000
  o =  0.0553  v =  0.0000  0.0000  0.0000  0.0000  0.0000 -0.5902 -0.7837 -0.0015 -0.1935  0.0014      0.0000  0.0000  0.0000  0.0000  0.0000  0.0000  0.0000  0.0000  0.0000  0.0000
  o =  0.0553  v =  0.0000  0.0000  0.0000  0.0000  0.0000 -0.5642  0.2290 -0.0014  0.7932 -0.0015      0.0000  0.0000  0.0000  0.0000  0.0000  0.0000  0.0000  0.0000  0.0000  0.0000
  o =  0.3598  v =  0.0000  0.0000  0.0000  0.0000  0.0000 -0.0017 -0.0008  1.0000  0.0008 -0.0000      0.0000  0.0000  0.0000  0.0000  0.0000  0.0000  0.0000  0.0000  0.0000  0.0000
  o =  0.3598  v =  0.0000  0.0000  0.0000  0.0000  0.0000  0.0000  0.0015  0.0000  0.0015  1.0000      0.0000  0.0000  0.0000  0.0000  0.0000  0.0000  0.0000  0.0000  0.0000  0.0000
  o =  0.4697  v = -0.0004 -0.0002  0.9998  0.0002 -0.0207  0.0000  0.0000  0.0000  0.0000  0.0000      0.0000  0.0000  0.0000  0.0000  0.0000  0.0000  0.0000  0.0000  0.0000  0.0000
  o =  0.4697  v = -0.0000  0.0003  0.0207  0.0003  0.9998  0.0000  0.0000  0.0000  0.0000  0.0000      0.0000  0.0000  0.0000  0.0000  0.0000  0.0000  0.0000  0.0000  0.0000  0.0000
  o =  0.9535  v =  0.6740 -0.0621  0.0004 -0.7361  0.0003  0.0000  0.0000  0.0000  0.0000  0.0000      0.0000  0.0000  0.0000  0.0000  0.0000  0.0000  0.0000  0.0000  0.0000  0.0000
  o =  0.9535  v =  0.4608  0.8141  0.0003  0.3533 -0.0004  0.0000  0.0000  0.0000  0.0000  0.0000      0.0000  0.0000  0.0000  0.0000  0.0000  0.0000  0.0000  0.0000  0.0000  0.0000
  o =  0.9568  v =  0.5774 -0.5774 -0.0000  0.5774  0.0000  0.0000  0.0000  0.0000  0.0000  0.0000      0.0000  0.0000  0.0000  0.0000  0.0000  0.0000  0.0000  0.0000  0.0000  0.0000
atom =   5  type =  2  l = 2
 
 onsite density matrix
 
spin component  1
 
  0.9546 -0.0011  0.0002  0.0011 -0.0000
 -0.0011  0.9546  0.0001 -0.0011 -0.0002
  0.0002  0.0001  0.4697 -0.0001 -0.0000
  0.0011 -0.0011 -0.0001  0.9546 -0.0002
 -0.0000 -0.0002 -0.0000 -0.0002  0.4697
 
spin component  2
 
  0.0543  0.0010 -0.0005 -0.0010  0.0000
  0.0010  0.0543 -0.0003  0.0010  0.0004
 -0.0005 -0.0003  0.3598  0.0003 -0.0000
 -0.0010  0.0010  0.0003  0.0543  0.0004
  0.0000  0.0004 -0.0000  0.0004  0.3598
 
 occupancies and eigenvectors
 
  o =  0.0522  v =  0.0000  0.0000  0.0000  0.0000  0.0000 -0.5774  0.5774 -0.0000 -0.5774  0.0000      0.0000  0.0000  0.0000  0.0000  0.0000  0.0000  0.0000  0.0000  0.0000  0.0000
  o =  0.0553  v =  0.0000  0.0000  0.0000  0.0000  0.0000  0.8165  0.4141  0.0021 -0.4023 -0.0000      0.0000  0.0000  0.0000  0.0000  0.0000  0.0000  0.0000  0.0000  0.0000  0.0000
  o =  0.0553  v =  0.0000  0.0000  0.0000  0.0000  0.0000 -0.0068  0.7037 -0.0000  0.7105 -0.0021      0.0000  0.0000  0.0000  0.0000  0.0000  0.0000  0.0000  0.0000  0.0000  0.0000
  o =  0.3598  v =  0.0000  0.0000  0.0000  0.0000  0.0000 -0.0017 -0.0008  0.9987  0.0009  0.0514      0.0000  0.0000  0.0000  0.0000  0.0000  0.0000  0.0000  0.0000  0.0000  0.0000
  o =  0.3598  v =  0.0000  0.0000  0.0000  0.0000  0.0000  0.0001  0.0015 -0.0514  0.0014  0.9987      0.0000  0.0000  0.0000  0.0000  0.0000  0.0000  0.0000  0.0000  0.0000  0.0000
  o =  0.4697  v =  0.0004  0.0002 -0.9988 -0.0002 -0.0486  0.0000  0.0000  0.0000  0.0000  0.0000      0.0000  0.0000  0.0000  0.0000  0.0000  0.0000  0.0000  0.0000  0.0000  0.0000
  o =  0.4697  v =  0.0000  0.0003 -0.0486  0.0003  0.9988  0.0000  0.0000  0.0000  0.0000  0.0000      0.0000  0.0000  0.0000  0.0000  0.0000  0.0000  0.0000  0.0000  0.0000  0.0000
  o =  0.9535  v =  0.3459 -0.4676  0.0002 -0.8135  0.0004  0.0000  0.0000  0.0000  0.0000  0.0000      0.0000  0.0000  0.0000  0.0000  0.0000  0.0000  0.0000  0.0000  0.0000  0.0000
  o =  0.9535  v = -0.7396 -0.6693 -0.0004  0.0703  0.0002  0.0000  0.0000  0.0000  0.0000  0.0000      0.0000  0.0000  0.0000  0.0000  0.0000  0.0000  0.0000  0.0000  0.0000  0.0000
  o =  0.9568  v = -0.5774  0.5774 -0.0000 -0.5774 -0.0000  0.0000  0.0000  0.0000  0.0000  0.0000      0.0000  0.0000  0.0000  0.0000  0.0000  0.0000  0.0000  0.0000  0.0000  0.0000
atom =   6  type =  3  l = 2
 
 onsite density matrix
 
spin component  1
 
[...]
  0.000   0.005   0.000   0.000   2.031  -0.000  -0.000  -0.010  -0.007  -0.001  -0.002  -0.007   0.003   0.002   0.001   0.000
 -0.000   0.001  -0.010   0.000  -0.000   0.011  -0.000   0.000  -0.002   0.002  -0.001  -0.002  -0.001   0.001  -0.001   0.000
 -0.000   0.001   0.000  -0.010  -0.000  -0.000   0.011   0.000  -0.002   0.002   0.001  -0.002  -0.000   0.001  -0.001  -0.000
  0.000  -0.001  -0.000  -0.000  -0.010   0.000   0.000   0.011   0.002  -0.002   0.001   0.002  -0.001  -0.001   0.001  -0.000
 -0.001  -0.002   0.007  -0.001  -0.007  -0.002  -0.002   0.002   1.222  -0.008  -0.004   0.008  -0.000  -0.562   0.004   0.001
  0.001   0.002  -0.007  -0.007  -0.001   0.002   0.002  -0.002  -0.008   1.222  -0.002  -0.008   0.004   0.004  -0.562   0.001
  0.000  -0.000   0.002  -0.003  -0.002  -0.001   0.001   0.001  -0.004  -0.002   0.918   0.002   0.000   0.001   0.001  -0.411
 -0.001  -0.002  -0.001   0.007  -0.007  -0.002  -0.002   0.002   0.008  -0.008   0.002   1.222   0.004  -0.004   0.004  -0.001
 -0.000  -0.000   0.003   0.000   0.003  -0.001   0.000  -0.001   0.000   0.004   0.000   0.004   0.918  -0.000  -0.001  -0.000
  0.000   0.001  -0.002   0.001   0.002   0.001   0.001  -0.001  -0.562   0.004   0.001  -0.004  -0.000   0.262  -0.002  -0.000
 -0.000  -0.001   0.002   0.002   0.001  -0.001  -0.001   0.001   0.004  -0.562   0.001   0.004  -0.001  -0.002   0.262  -0.000
  0.000  -0.000  -0.000   0.001   0.000   0.000  -0.000  -0.000   0.001   0.001  -0.411  -0.001  -0.000  -0.000  -0.000   0.186
  0.000   0.001   0.001  -0.002   0.002   0.001   0.001  -0.001  -0.004   0.004  -0.001  -0.562  -0.001   0.002  -0.002   0.000
  0.000   0.000  -0.000   0.000  -0.000   0.000  -0.000   0.000   0.000  -0.001   0.000  -0.001  -0.411   0.000   0.000  -0.000
  0.001  -0.001   0.020  -0.000   0.002  -0.008  -0.000   0.000   0.008   0.008   0.010   0.007  -0.004  -0.003  -0.003  -0.004
  0.002   0.012   0.002   0.002  -0.002   0.000   0.000  -0.000   0.004  -0.004  -0.000   0.004  -0.000  -0.002   0.002  -0.000
  0.001  -0.001   0.016  -0.003  -0.001  -0.006  -0.000   0.000  -0.010  -0.010  -0.011   0.006   0.008   0.004   0.004   0.005
 -0.001   0.002   0.002  -0.025  -0.002   0.000   0.010  -0.000  -0.009  -0.000   0.002   0.000   0.000   0.004   0.000  -0.001
 -0.001   0.001  -0.001   0.003   0.016   0.000   0.000  -0.006   0.010   0.006   0.011  -0.010   0.008  -0.004  -0.003  -0.005
  0.000   0.000   0.002  -0.000   0.002  -0.000   0.000  -0.000   0.000   0.013   0.000   0.013  -0.017  -0.000  -0.005  -0.000
  0.001  -0.001  -0.002  -0.000  -0.020  -0.000  -0.000   0.008   0.008  -0.007   0.010  -0.008   0.004  -0.003   0.003  -0.004
 -0.001   0.002  -0.028  -0.000  -0.003   0.010   0.000  -0.000  -0.011  -0.012  -0.015  -0.009   0.005   0.005   0.005   0.006
 -0.002  -0.017  -0.002  -0.002   0.002  -0.001  -0.001   0.001  -0.006   0.006  -0.000  -0.006   0.000   0.002  -0.002   0.000
 -0.001   0.002  -0.022   0.003   0.001   0.008  -0.000  -0.000   0.015   0.015   0.016  -0.007  -0.012  -0.006  -0.006  -0.007
  0.001  -0.003  -0.002   0.035   0.002  -0.000  -0.013   0.000   0.012   0.001  -0.003  -0.001  -0.000  -0.006  -0.000   0.001
  0.001  -0.002   0.001  -0.003  -0.022  -0.000   0.000   0.008  -0.015  -0.007  -0.016   0.015  -0.012   0.006   0.003   0.007
 -0.000   0.000  -0.003   0.000  -0.003   0.000  -0.000   0.000  -0.000  -0.019  -0.000  -0.019   0.025   0.000   0.008   0.000
 -0.001   0.002   0.003  -0.000   0.028   0.000   0.000  -0.010  -0.011   0.009  -0.015   0.012  -0.005   0.005  -0.004   0.006
 total augmentation occupancy for first ion, spin component:           2
 -0.000  -0.000   0.000   0.000  -0.000   0.000   0.000  -0.000   0.000  -0.000   0.000   0.000   0.000  -0.000   0.000  -0.000
 -0.000  -0.001   0.000   0.000  -0.000   0.000   0.000  -0.000   0.002  -0.002  -0.000   0.002   0.000  -0.001   0.001  -0.000
  0.000   0.000   0.000  -0.000   0.000  -0.000   0.000  -0.000   0.000  -0.000   0.000  -0.001   0.000  -0.000   0.000  -0.000
  0.000   0.000  -0.000   0.000   0.000   0.000  -0.000  -0.000  -0.001  -0.000  -0.000   0.000   0.000  -0.000   0.000   0.000
 -0.000  -0.000   0.000   0.000   0.000  -0.000  -0.000  -0.000  -0.000  -0.001  -0.000  -0.000   0.000   0.000  -0.000   0.000
  0.000   0.000  -0.000   0.000  -0.000   0.000  -0.000   0.000  -0.000   0.000   0.000   0.001   0.000   0.000  -0.000  -0.000
  0.000   0.000   0.000  -0.000  -0.000  -0.000   0.000   0.000   0.001   0.000  -0.000  -0.000  -0.000  -0.001  -0.000   0.000
 -0.000  -0.000  -0.000  -0.000  -0.000   0.000   0.000   0.000   0.000   0.001  -0.000   0.000   0.000  -0.000  -0.001   0.000
  0.000   0.002   0.000  -0.001  -0.000  -0.000   0.001   0.000  -0.001   0.003   0.002  -0.003  -0.000   0.001  -0.001  -0.001
 -0.000  -0.002  -0.000  -0.000  -0.001   0.000   0.000   0.001   0.003  -0.001   0.001   0.003  -0.002  -0.001   0.001  -0.000
  0.000  -0.000   0.000  -0.000  -0.000   0.000  -0.000  -0.000   0.002   0.001   0.029  -0.001  -0.000  -0.001  -0.000  -0.011
  0.000   0.002  -0.001   0.000  -0.000   0.001  -0.000   0.000  -0.003   0.003  -0.001  -0.001  -0.002   0.001  -0.001   0.000
  0.000  -0.000   0.000  -0.000   0.000   0.000   0.000   0.000  -0.000  -0.002  -0.000  -0.002   0.029  -0.000   0.001   0.000
 -0.000  -0.001  -0.000  -0.000   0.000   0.000  -0.001  -0.000   0.001  -0.001  -0.001   0.001   0.000  -0.000   0.000   0.000
  0.000   0.001   0.000   0.000  -0.000  -0.000  -0.000  -0.001  -0.001   0.001  -0.000  -0.001   0.001   0.000  -0.000   0.000
 -0.000  -0.000  -0.000   0.000   0.000  -0.000   0.000   0.000  -0.001  -0.000  -0.011   0.000   0.000   0.000   0.000   0.004
 -0.000  -0.001  -0.000  -0.000   0.000  -0.001   0.000  -0.000   0.001  -0.001   0.000   0.001   0.001  -0.000   0.000  -0.000
 -0.000  -0.000  -0.000   0.000  -0.000  -0.000   0.000  -0.000   0.000   0.001   0.000   0.001  -0.011   0.000  -0.000   0.000
 -0.000  -0.000   0.000   0.000   0.000   0.000   0.000  -0.000   0.000  -0.001  -0.000  -0.001   0.000  -0.000   0.000   0.000
 -0.000  -0.007  -0.000  -0.000   0.000  -0.000  -0.000   0.000  -0.001   0.001   0.000  -0.001  -0.000   0.000  -0.000  -0.000
 -0.000  -0.000   0.000  -0.000  -0.000   0.000   0.000  -0.000   0.001   0.000   0.001  -0.001  -0.000  -0.000  -0.000  -0.000
  0.000   0.000  -0.000  -0.000   0.000  -0.000  -0.001   0.000   0.001   0.001   0.000  -0.001  -0.000  -0.000  -0.000  -0.000
  0.000   0.000  -0.000   0.000   0.000  -0.000  -0.000   0.000  -0.001  -0.001  -0.001   0.000  -0.000   0.000   0.000   0.000
  0.000   0.000   0.000   0.000   0.000   0.000   0.000   0.000   0.000  -0.001  -0.000  -0.001   0.001   0.000   0.000   0.000
 -0.000  -0.000  -0.000   0.000  -0.000   0.000   0.000  -0.000   0.000   0.001  -0.000   0.001  -0.000  -0.000  -0.000   0.000
  0.000   0.000   0.000  -0.000  -0.000  -0.001  -0.000   0.000  -0.000   0.001   0.001   0.001  -0.001   0.000  -0.000  -0.000
 -0.000   0.011  -0.000  -0.000   0.000   0.000   0.000  -0.000   0.002  -0.002  -0.000   0.002   0.000  -0.001   0.001  -0.000
  0.000   0.000   0.000   0.000   0.000  -0.001  -0.000   0.000  -0.001  -0.000  -0.001   0.001   0.000   0.000   0.000   0.000
 -0.000  -0.000  -0.000  -0.000   0.000   0.000   0.001  -0.000  -0.001  -0.001  -0.000   0.001   0.000   0.000   0.000   0.000
 -0.000  -0.000   0.000  -0.000   0.000   0.000   0.000  -0.001   0.001   0.001   0.001  -0.000   0.000  -0.000  -0.000  -0.000
  0.000   0.000  -0.000   0.000  -0.000  -0.000   0.000  -0.000   0.000   0.001   0.000   0.001  -0.002   0.000  -0.000   0.000
  0.000   0.000   0.000  -0.000  -0.000  -0.000  -0.000   0.001  -0.000  -0.001   0.001  -0.001   0.001   0.000   0.000  -0.000


------------------------ aborting loop because EDIFF is reached ----------------------------------------


 


 total charge     
 
# of ion       s       p       d       f       tot
--------------------------------------------------
    1        1.999   5.697   0.481   0.187   8.364
    2        1.998   5.697   0.481   0.187   8.364
    3        1.998   5.698   0.480   0.187   8.364
    4        0.329   0.507   4.882   0.000   5.719
    5        0.329   0.507   4.882   0.000   5.718
    6        0.400   0.572   8.317   0.000   9.288
    7        1.562   3.511   0.000   0.000   5.073
    8        1.565   3.489   0.000   0.000   5.053
    9        1.562   3.511   0.000   0.000   5.073
   10        1.561   3.433   0.000   0.000   4.994
   11        1.561   3.433   0.000   0.000   4.994
   12        1.562   3.454   0.000   0.000   5.016
   13        1.561   3.410   0.000   0.000   4.971
   14        1.561   3.410   0.000   0.000   4.971
   15        1.563   3.434   0.000   0.000   4.997
--------------------------------------------------
tot         21.112  49.761  19.524   0.562  90.958

 


 magnetization (x)
 
# of ion       s       p       d       f       tot
--------------------------------------------------
    1        0.000   0.001   0.009   0.005   0.015
    2        0.000   0.001   0.009   0.005   0.015
    3       -0.000   0.001   0.010   0.005   0.016
    4        0.025   0.031   3.605   0.000   3.661
    5        0.025   0.031   3.605   0.000   3.661
    6        0.014  -0.001   1.646   0.000   1.659
    7        0.007  -0.003   0.000   0.000   0.004
    8        0.006  -0.039   0.000   0.000  -0.032
    9        0.007  -0.003   0.000   0.000   0.004
   10        0.006  -0.031   0.000   0.000  -0.026
   11        0.006  -0.031   0.000   0.000  -0.025
   12        0.003  -0.034   0.000   0.000  -0.031
   13        0.005  -0.035   0.000   0.000  -0.029
   14        0.005  -0.035   0.000   0.000  -0.030
   15        0.004  -0.038   0.000   0.000  -0.034
--------------------------------------------------
tot          0.114  -0.186   8.883   0.015   8.826

 
    CHARGE:  cpu time    0.0615: real time    0.0616
    FORLOC:  cpu time    0.0041: real time    0.0041
    FORNL :  cpu time    0.2912: real time    0.2924
    STRESS:  cpu time    0.8812: real time    0.8845
    FORCOR:  cpu time    0.0456: real time    0.0457
    FORHAR:  cpu time    0.0082: real time    0.0083
    MIXING:  cpu time    0.0029: real time    0.0029
    OFIELD:  cpu time    0.0001: real time    0.0003

  FORCE on cell =-STRESS in cart. coord.  units (eV):
  Direction    XX          YY          ZZ          XY          YZ          ZX
  --------------------------------------------------------------------------------------
  Alpha Z   487.45798   487.45798   487.45798
  Ewald   -2511.11731 -2511.11731 -2511.11730     4.99429    -4.99428     4.99428
  Hartree   539.70039   539.70039   539.70039     4.76710    -4.76710     4.76710
  E(xc)    -512.93289  -512.93289  -512.93289    -0.00365     0.00364    -0.00364
  Local    -294.11586  -294.11586  -294.11556    -9.85188     9.85156    -9.85156
  n-local   202.93326   201.85500   201.14511    -0.69786    -0.99002    -0.23429
  augment   172.10572   172.10572   172.10541     0.03954    -0.03924     0.03924
  Kinetic  1908.80133  1917.73028  1923.57226    -3.89980    -5.08998    -1.05784
  Fock        0.00000     0.00000     0.00000     0.00000     0.00000     0.00000
  -------------------------------------------------------------------------------------
  Total      -0.22290    -0.22290    -0.22290     0.00121    -0.00121     0.00121
  in kB      -2.00722    -2.00722    -2.00722     0.01090    -0.01090     0.01090
  external pressure =       -2.01 kB  Pullay stress =        0.00 kB


 VOLUME and BASIS-vectors are now :
 -----------------------------------------------------------------------------
  energy-cutoff  :      520.00
  volume of cell :      177.92
      direct lattice vectors                 reciprocal lattice vectors
    -3.899393278  0.000000000 -3.899393278    -0.170966768 -0.085483384 -0.085483384
     0.000000000 -3.899393278  3.899393278    -0.085483384 -0.170966768  0.085483384
    -3.900395327  3.900395327  3.900395327    -0.085461423  0.085461423  0.085461423

  length of vectors
     5.514574858  5.514574858  6.755682875     0.209390673  0.209390673  0.148023526


 FORCES acting on ions
    electron-ion (+dipol)            ewald-force                    non-local-force                 convergence-correction
 -----------------------------------------------------------------------------------------------
   -.221E+02 0.221E+02 0.221E+02   0.219E+02 -.219E+02 -.219E+02   0.144E+00 -.144E+00 -.144E+00   -.148E-01 0.148E-01 0.148E-01
   0.221E+02 -.221E+02 -.221E+02   -.219E+02 0.219E+02 0.219E+02   -.144E+00 0.144E+00 0.144E+00   0.149E-01 -.149E-01 -.149E-01
   -.114E-03 0.114E-03 -.276E-03   0.672E-04 -.672E-04 -.157E-03   0.108E-18 0.000E+00 0.325E-18   0.254E-06 -.254E-06 0.402E-06
   0.160E+02 -.160E+02 -.160E+02   -.155E+02 0.155E+02 0.155E+02   -.553E+00 0.553E+00 0.553E+00   0.157E-01 -.157E-01 -.157E-01
   -.160E+02 0.160E+02 0.160E+02   0.155E+02 -.155E+02 -.155E+02   0.553E+00 -.553E+00 -.553E+00   -.157E-01 0.157E-01 0.157E-01
   -.853E-04 0.854E-04 0.195E-03   -.640E-04 0.640E-04 -.143E-03   0.169E-19 -.203E-19 -.169E-19   0.522E-05 -.522E-05 -.439E-05
   0.493E+02 -.813E+01 -.813E+01   -.456E+02 0.826E+01 0.826E+01   -.375E+01 -.133E+00 -.133E+00   0.376E-01 -.624E-02 -.624E-02
   -.170E-03 0.172E-03 -.285E-03   0.499E-04 -.807E-04 -.278E-05   0.271E-19 -.813E-19 0.217E-18   -.316E-05 0.342E-05 0.262E-05
   -.493E+02 0.813E+01 0.813E+01   0.456E+02 -.826E+01 -.826E+01   0.375E+01 0.133E+00 0.133E+00   -.376E-01 0.624E-02 0.624E-02
   -.813E+01 0.493E+02 0.813E+01   0.826E+01 -.456E+02 -.826E+01   -.133E+00 -.375E+01 0.133E+00   -.624E-02 0.376E-01 0.624E-02
   0.813E+01 -.493E+02 -.813E+01   -.826E+01 0.456E+02 0.826E+01   0.133E+00 0.375E+01 -.133E+00   0.624E-02 -.376E-01 -.624E-02
   -.172E-03 0.171E-03 -.285E-03   0.807E-04 -.499E-04 -.278E-05   -.813E-19 -.190E-18 -.298E-18   -.342E-05 0.316E-05 0.262E-05
   -.813E+01 0.813E+01 0.493E+02   0.826E+01 -.826E+01 -.456E+02   -.133E+00 0.133E+00 -.375E+01   -.624E-02 0.624E-02 0.376E-01
   0.813E+01 -.813E+01 -.493E+02   -.826E+01 0.826E+01 0.456E+02   0.133E+00 -.133E+00 0.375E+01   0.624E-02 -.624E-02 -.376E-01
   -.199E-03 0.200E-03 -.173E-03   0.499E-04 -.499E-04 -.251E-03   0.217E-18 0.271E-18 -.108E-18   -.302E-05 0.302E-05 0.302E-05
 -----------------------------------------------------------------------------------------------
   -.204E-02 0.204E-02 0.236E-02   -.351E-14 -.498E-13 -.356E-13   -.172E-14 0.180E-14 0.133E-14   0.389E-05 -.389E-05 -.341E-05
 
 
 POSITION                                       TOTAL-FORCE (eV/Angst)
 -----------------------------------------------------------------------------------
     -0.01543      0.01543      0.01543        -0.103894      0.103894      0.103894
     -3.88430     -0.01509     -0.01509         0.103894     -0.103894     -0.103894
     -3.90006      0.00067      3.90006        -0.000000      0.000000      0.000000
     -1.94098      1.94098      1.94098        -0.067186      0.067186      0.067186
     -5.85914      1.95975      1.95975         0.067186     -0.067186     -0.067186
     -1.94986     -1.94953      1.94986        -0.000000      0.000000      0.000000
     -3.91678     -1.94688      1.95251         0.014573     -0.001240     -0.001240
     -3.90006      1.95036      1.95037        -0.000000      0.000000      0.000000
     -7.78273      1.94822      1.94822        -0.014573      0.001240      0.001240
     -5.84761      3.88334      1.94822        -0.001240      0.014573      0.001240
     -1.95251      0.01739      1.95251         0.001240     -0.014573     -0.001240
     -5.84976      0.00067      1.95037        -0.000000      0.000000      0.000000
     -5.84761      1.94822      3.88334        -0.001240      0.001240      0.014573
     -1.95251     -1.94688      3.91678         0.001240     -0.001240     -0.014573
     -5.84976      1.95036      0.00067        -0.000000      0.000000      0.000000
 -----------------------------------------------------------------------------------
    total drift:                               -0.002033      0.002034      0.002352


--------------------------------------------------------------------------------------------------------



  FREE ENERGIE OF THE ION-ELECTRON SYSTEM (eV)
  ---------------------------------------------------
  free  energy   TOTEN  =      -113.24524805 eV

  energy  without entropy=     -113.24524805  energy(sigma->0) =     -113.24524805
 


--------------------------------------------------------------------------------------------------------


    POTLOK:  cpu time    0.0499: real time    0.0500


--------------------------------------------------------------------------------------------------------


     LOOP+:  cpu time   21.9246: real time   22.0270
    4ORBIT:  cpu time    0.0000: real time    0.0000
 


 total charge     
 
# of ion       s       p       d       f       tot
--------------------------------------------------
    1        1.999   5.697   0.481   0.187   8.364
    2        1.998   5.697   0.481   0.187   8.364
    3        1.998   5.698   0.480   0.187   8.364
    4        0.329   0.507   4.882   0.000   5.719
    5        0.329   0.507   4.882   0.000   5.718
    6        0.400   0.572   8.317   0.000   9.288
    7        1.562   3.511   0.000   0.000   5.073
    8        1.565   3.489   0.000   0.000   5.053
    9        1.562   3.511   0.000   0.000   5.073
   10        1.561   3.433   0.000   0.000   4.994
   11        1.561   3.433   0.000   0.000   4.994
   12        1.562   3.454   0.000   0.000   5.016
   13        1.561   3.410   0.000   0.000   4.971
   14        1.561   3.410   0.000   0.000   4.971
   15        1.563   3.434   0.000   0.000   4.997
--------------------------------------------------
tot         21.112  49.761  19.524   0.562  90.958

 


 magnetization (x)
 
# of ion       s       p       d       f       tot
--------------------------------------------------
    1        0.000   0.001   0.009   0.005   0.015
    2        0.000   0.001   0.009   0.005   0.015
    3       -0.000   0.001   0.010   0.005   0.016
    4        0.025   0.031   3.605   0.000   3.661
    5        0.025   0.031   3.605   0.000   3.661
    6        0.014  -0.001   1.646   0.000   1.659
    7        0.007  -0.003   0.000   0.000   0.004
    8        0.006  -0.039   0.000   0.000  -0.032
    9        0.007  -0.003   0.000   0.000   0.004
   10        0.006  -0.031   0.000   0.000  -0.026
   11        0.006  -0.031   0.000   0.000  -0.025
   12        0.003  -0.034   0.000   0.000  -0.031
   13        0.005  -0.035   0.000   0.000  -0.029
   14        0.005  -0.035   0.000   0.000  -0.030
   15        0.004  -0.038   0.000   0.000  -0.034
--------------------------------------------------
tot          0.114  -0.186   8.883   0.015   8.826

 
 BZINTS: Fermi energy:  8.192386;111.000000 electrons
         Band energy:-185.268840;  BLOECHL correction: -0.013504

 total amount of memory used by VASP MPI-rank0    46146. kBytes
=======================================================================

   base      :      30000. kBytes
   nonlr-proj:       3878. kBytes
   fftplans  :       1695. kBytes
   grid      :       4945. kBytes
   one-center:        196. kBytes
   wavefun   :       5432. kBytes
 
  
  
 General timing and accounting informations for this job:
 ========================================================
  
                  Total CPU time used (sec):       25.594
                            User time (sec):       24.293
                          System time (sec):        1.301
                         Elapsed time (sec):       25.836
  
                   Maximum memory used (kb):       77764.
                   Average memory used (kb):           0.
  
                          Minor page faults:        29523
                          Major page faults:            0
                 Voluntary context switches:          992
