       N       E                     dE             d eps       ncg     rms          rms(c)
DAV:   1     0.357837459148E+04    0.35784E+04   -0.78557E+04  5636   0.245E+03
DAV:   2     0.124519659158E+04   -0.23332E+04   -0.20964E+04  5856   0.635E+02
DAV:   3     0.274329214703E+03   -0.97087E+03   -0.86893E+03  5872   0.327E+02
DAV:   4    -0.157699312548E+03   -0.43203E+03   -0.40670E+03  8450   0.181E+02
DAV:   5    -0.249415524979E+03   -0.91716E+02   -0.88066E+02  9542   0.986E+01    0.763E+01
RMM:   6    -0.223506972580E+03    0.25909E+02   -0.73901E+02  9014   0.107E+02    0.108E+02
RMM:   7    -0.224970786081E+03   -0.14638E+01   -0.14966E+02  9322   0.362E+01    0.553E+01
RMM:   8    -0.217293368399E+03    0.76774E+01   -0.85622E+01  6640   0.492E+01    0.305E+01
RMM:   9    -0.219651978227E+03   -0.23586E+01   -0.33459E+01  8680   0.174E+01    0.243E+01
RMM:  10    -0.219788154157E+03   -0.13618E+00   -0.79022E+00  8919   0.931E+00    0.172E+01
RMM:  11    -0.219821351039E+03   -0.33197E-01   -0.42868E+00  9412   0.528E+00    0.826E+00
RMM:  12    -0.219837997721E+03   -0.16647E-01   -0.18428E+00  9511   0.390E+00    0.692E+00
RMM:  13    -0.219934133440E+03   -0.96136E-01   -0.81244E-01  9631   0.205E+00    0.506E+00
RMM:  14    -0.220003610912E+03   -0.69477E-01   -0.32559E-01  8775   0.181E+00    0.317E+00
RMM:  15    -0.220031314896E+03   -0.27704E-01   -0.12737E-01  8722   0.102E+00    0.188E+00
RMM:  16    -0.220036544219E+03   -0.52293E-02   -0.54710E-02  8137   0.631E-01    0.108E+00
RMM:  17    -0.220043178310E+03   -0.66341E-02   -0.62760E-02  8230   0.699E-01    0.605E-01
RMM:  18    -0.220046333996E+03   -0.31557E-02   -0.24043E-02  7036   0.499E-01    0.261E-01
RMM:  19    -0.220047009107E+03   -0.67511E-03   -0.90446E-03  5234   0.344E-01
   1 F= -.22004701E+03 E0= -.22004701E+03  d E =0.000000E+00  mag=    15.0424
