 vasp.5.4.4.18Apr17-6-g9f103f2a35 (build Oct 03 2018 13:58:34) complex          
  
 executed on             LinuxIFC date 2019.06.04  00:59:42
 running on   40 total cores
 distrk:  each k-point on   20 cores,    2 groups
 distr:  one band on NCORES_PER_BAND=  10 cores,    2 groups


--------------------------------------------------------------------------------------------------------


 INCAR:
 POTCAR:    PAW_PBE La 06Sep2000                  
 POTCAR:    PAW_PBE Mn 06Sep2000                  
 POTCAR:    PAW_PBE Ni 02Aug2007                  
 POTCAR:    PAW_PBE O 08Apr2002                   

 ----------------------------------------------------------------------------- 
|                                                                             |
|           W    W    AA    RRRRR   N    N  II  N    N   GGGG   !!!           |
|           W    W   A  A   R    R  NN   N  II  NN   N  G    G  !!!           |
|           W    W  A    A  R    R  N N  N  II  N N  N  G       !!!           |
|           W WW W  AAAAAA  RRRRR   N  N N  II  N  N N  G  GGG   !            |
|           WW  WW  A    A  R   R   N   NN  II  N   NN  G    G                |
|           W    W  A    A  R    R  N    N  II  N    N   GGGG   !!!           |
|                                                                             |
|      You have enabled k-point parallelism (KPAR>1).                         |
|      This developmental code was originally  written by Paul Kent at ORNL,  |
|      and carefully double checked in Vienna.                                |
|      GW as well as linear response parallelism added by Martijn Marsman     |
|      and Georg Kresse.                                                      |
|      Carefully verify results versus KPAR=1.                                |
|      Report problems to Paul Kent and Vienna.                               |
|                                                                             |
 ----------------------------------------------------------------------------- 

 POTCAR:    PAW_PBE La 06Sep2000                  
   VRHFIN =La : [core=Kr4d]                                                     
   LEXCH  = PE                                                                  
   EATOM  =   865.9763 eV,   63.6475 Ry                                         
                                                                                
   TITEL  = PAW_PBE La 06Sep2000                                                
   LULTRA =        F    use ultrasoft PP ?                                      
   IUNSCR =        1    unscreen: 0-lin 1-nonlin 2-no                           
   RPACOR =    2.300    partial core radius                                     
   POMASS =  138.900; ZVAL   =   11.000    mass and valenz                      
   RCORE  =    2.800    outmost cutoff radius                                   
   RWIGS  =    2.900; RWIGS  =    1.535    wigner-seitz radius (au A)           
   ENMAX  =  219.292; ENMIN  =  164.469 eV                                      
   RCLOC  =    1.601    cutoff for local pot                                    
   LCOR   =        T    correct aug charges                                     
   LPAW   =        T    paw PP                                                  
   EAUG   =  583.575                                                            
   DEXC   =    0.000                                                            
   RMAX   =    2.853    core radius for proj-oper                               
   RAUG   =    1.300    factor for augmentation sphere                          
   RDEP   =    2.802    radius for radial grids                                 
   RDEPT  =    2.156    core radius for aug-charge                              
                                                                                
   Atomic configuration                                                         
   14 entries                                                                   
     n  l   j            E        occ.                                          
     1  0  0.50    -38741.0879   2.0000                                         
     2  0  0.50     -6166.6801   2.0000                                         
     2  1  1.50     -5526.1593   6.0000                                         
     3  0  0.50     -1319.0200   2.0000                                         
     3  1  1.50     -1114.5963   6.0000                                         
     3  2  2.50      -821.1793  10.0000                                         
     4  0  0.50      -266.3851   2.0000                                         
     4  1  1.50      -199.9276   6.0000                                         
     4  2  2.50      -103.8239  10.0000                                         
     5  0  0.50       -38.9172   2.0000                                         
     6  0  0.50        -3.6792   2.0000                                         
     5  1  1.50       -22.3948   6.0000                                         
     5  2  2.50        -3.0911   0.9999                                         
     4  3  2.50        -4.3603   0.0001                                         
   Description                                                                  
     l       E           TYP  RCUT    TYP  RCUT                                 
     0    -38.9171645     23  2.800                                             
     0     -3.6792381     23  2.800                                             
     1    -22.3948300     23  2.500                                             
     1     27.2116520     23  2.500                                             
     2     -3.0910934     23  2.500                                             
     2      1.0119135     23  2.500                                             
     3     -4.3602911     23  2.800                                             
     3     -5.7208737     23  2.800                                             
  local pseudopotential read in
  partial core-charges read in
  partial kinetic energy density read in
  atomic valenz-charges read in
  non local Contribution for L=           0  read in
    real space projection operators read in
  non local Contribution for L=           0  read in
    real space projection operators read in
  non local Contribution for L=           1  read in
    real space projection operators read in
  non local Contribution for L=           1  read in
    real space projection operators read in
  non local Contribution for L=           2  read in
    real space projection operators read in
  non local Contribution for L=           2  read in
    real space projection operators read in
  non local Contribution for L=           3  read in
    real space projection operators read in
  non local Contribution for L=           3  read in
    real space projection operators read in
    PAW grid and wavefunctions read in
 
   number of l-projection  operators is LMAX  =           8
   number of lm-projection operators is LMMAX =          32
 
 POTCAR:    PAW_PBE Mn 06Sep2000                  
   VRHFIN =Mn: d6 s1                                                            
   LEXCH  = PE                                                                  
   EATOM  =   416.7541 eV,   30.6306 Ry                                         
                                                                                
   TITEL  = PAW_PBE Mn 06Sep2000                                                
   LULTRA =        F    use ultrasoft PP ?                                      
   IUNSCR =        1    unscreen: 0-lin 1-nonlin 2-no                           
   RPACOR =    2.000    partial core radius                                     
   POMASS =   54.938; ZVAL   =    7.000    mass and valenz                      
   RCORE  =    2.300    outmost cutoff radius                                   
   RWIGS  =    2.500; RWIGS  =    1.323    wigner-seitz radius (au A)           
   ENMAX  =  269.864; ENMIN  =  202.398 eV                                      
   RCLOC  =    1.725    cutoff for local pot                                    
   LCOR   =        T    correct aug charges                                     
   LPAW   =        T    paw PP                                                  
   EAUG   =  500.711                                                            
   DEXC   =    0.000                                                            
   RMAX   =    2.343    core radius for proj-oper                               
   RAUG   =    1.300    factor for augmentation sphere                          
   RDEP   =    2.338    radius for radial grids                                 
   RDEPT  =    1.911    core radius for aug-charge                              
                                                                                
   Atomic configuration                                                         
    9 entries                                                                   
     n  l   j            E        occ.                                          
     1  0  0.50     -6424.8288   2.0000                                         
     2  0  0.50      -739.1154   2.0000                                         
     2  1  1.50      -625.3949   6.0000                                         
     3  0  0.50       -81.6100   2.0000                                         
     3  1  1.50       -50.4667   6.0000                                         
     3  2  2.50        -3.3745   6.0000                                         
     4  0  0.50        -4.1331   1.0000                                         
     4  1  0.50        -4.0817   0.0000                                         
     4  3  2.50        -1.3606   0.0000                                         
   Description                                                                  
     l       E           TYP  RCUT    TYP  RCUT                                 
     2     -3.3744664     23  2.300                                             
     2     -4.7350490     23  2.300                                             
     0     -4.1331408     23  2.300                                             
     0      7.6656614     23  2.300                                             
     1     -2.7211652     23  2.300                                             
     1     20.4087390     23  2.300                                             
  local pseudopotential read in
  partial core-charges read in
  partial kinetic energy density read in
  atomic valenz-charges read in
  non local Contribution for L=           2  read in
    real space projection operators read in
  non local Contribution for L=           2  read in
    real space projection operators read in
  non local Contribution for L=           0  read in
    real space projection operators read in
  non local Contribution for L=           0  read in
    real space projection operators read in
  non local Contribution for L=           1  read in
    real space projection operators read in
  non local Contribution for L=           1  read in
    real space projection operators read in
    PAW grid and wavefunctions read in
 
   number of l-projection  operators is LMAX  =           6
   number of lm-projection operators is LMMAX =          18
 
 POTCAR:    PAW_PBE Ni 02Aug2007                  
   VRHFIN =Ni:                                                                  
   LEXCH  = PE                                                                  
   EATOM  =  1077.6739 eV,   79.2068 Ry                                         
                                                                                
   TITEL  = PAW_PBE Ni 02Aug2007                                                
   LULTRA =        F    use ultrasoft PP ?                                      
   IUNSCR =        1    unscreen: 0-lin 1-nonlin 2-no                           
   RPACOR =    2.000    partial core radius                                     
   POMASS =   58.690; ZVAL   =   10.000    mass and valenz                      
   RCORE  =    2.300    outmost cutoff radius                                   
   RWIGS  =    2.430; RWIGS  =    1.286    wigner-seitz radius (au A)           
   ENMAX  =  269.532; ENMIN  =  202.149 eV                                      
   RCLOC  =    1.201    cutoff for local pot                                    
   LCOR   =        T    correct aug charges                                     
   LPAW   =        T    paw PP                                                  
   EAUG   =  544.565                                                            
   DEXC   =    0.000                                                            
   RMAX   =    2.357    core radius for proj-oper                               
   RAUG   =    1.300    factor for augmentation sphere                          
   RDEP   =    2.390    radius for radial grids                                 
   RDEPT  =    1.838    core radius for aug-charge                              
                                                                                
   Atomic configuration                                                         
    9 entries                                                                   
     n  l   j            E        occ.                                          
     1  0  0.50     -8206.4253   2.0000                                         
     2  0  0.50      -976.1748   2.0000                                         
     2  1  1.50      -839.0571   6.0000                                         
     3  0  0.50      -105.9991   2.0000                                         
     3  1  1.50       -66.4603   6.0000                                         
     3  2  2.50        -4.6458   9.0000                                         
     4  0  0.50        -4.4926   1.0000                                         
     4  1  1.50        -4.0817   0.0000                                         
     4  3  2.50        -1.3606   0.0000                                         
   Description                                                                  
     l       E           TYP  RCUT    TYP  RCUT                                 
     2     -4.6457903     23  2.300                                             
     2     -6.0063729     23  2.300                                             
     0     -4.4925590     23  2.300                                             
     0      5.0102601     23  2.300                                             
     1     -2.7211652     23  2.300                                             
     1     16.5183231     23  2.300                                             
  local pseudopotential read in
  partial core-charges read in
  partial kinetic energy density read in
  atomic valenz-charges read in
  non local Contribution for L=           2  read in
    real space projection operators read in
  non local Contribution for L=           2  read in
    real space projection operators read in
  non local Contribution for L=           0  read in
    real space projection operators read in
  non local Contribution for L=           0  read in
    real space projection operators read in
  non local Contribution for L=           1  read in
    real space projection operators read in
  non local Contribution for L=           1  read in
    real space projection operators read in
    PAW grid and wavefunctions read in
 
   number of l-projection  operators is LMAX  =           6
   number of lm-projection operators is LMMAX =          18
 
 POTCAR:    PAW_PBE O 08Apr2002                   
   VRHFIN =O: s2p4                                                              
   LEXCH  = PE                                                                  
   EATOM  =   432.3788 eV,   31.7789 Ry                                         
                                                                                
   TITEL  = PAW_PBE O 08Apr2002                                                 
   LULTRA =        F    use ultrasoft PP ?                                      
   IUNSCR =        1    unscreen: 0-lin 1-nonlin 2-no                           
   RPACOR =    1.200    partial core radius                                     
   POMASS =   16.000; ZVAL   =    6.000    mass and valenz                      
   RCORE  =    1.520    outmost cutoff radius                                   
   RWIGS  =    1.550; RWIGS  =    0.820    wigner-seitz radius (au A)           
   ENMAX  =  400.000; ENMIN  =  300.000 eV                                      
   ICORE  =        2    local potential                                         
   LCOR   =        T    correct aug charges                                     
   LPAW   =        T    paw PP                                                  
   EAUG   =  605.392                                                            
   DEXC   =    0.000                                                            
   RMAX   =    1.553    core radius for proj-oper                               
   RAUG   =    1.300    factor for augmentation sphere                          
   RDEP   =    1.550    radius for radial grids                                 
   RDEPT  =    1.329    core radius for aug-charge                              
                                                                                
   Atomic configuration                                                         
    4 entries                                                                   
     n  l   j            E        occ.                                          
     1  0  0.50      -514.6923   2.0000                                         
     2  0  0.50       -23.9615   2.0000                                         
     2  1  0.50        -9.0305   4.0000                                         
     3  2  1.50        -9.5241   0.0000                                         
   Description                                                                  
     l       E           TYP  RCUT    TYP  RCUT                                 
     0    -23.9615318     23  1.200                                             
     0     -9.5240782     23  1.200                                             
     1     -9.0304911     23  1.520                                             
     1      8.1634956     23  1.520                                             
     2     -9.5240782      7  1.500                                             
  local pseudopotential read in
  partial core-charges read in
  partial kinetic energy density read in
  kinetic energy density of atom read in
  atomic valenz-charges read in
  non local Contribution for L=           0  read in
    real space projection operators read in
  non local Contribution for L=           0  read in
    real space projection operators read in
  non local Contribution for L=           1  read in
    real space projection operators read in
  non local Contribution for L=           1  read in
    real space projection operators read in
    PAW grid and wavefunctions read in
 
   number of l-projection  operators is LMAX  =           4
   number of lm-projection operators is LMMAX =           8
 
 Optimization of the real space projectors (new method)

 maximal supplied QI-value         = 13.42
 optimisation between [QCUT,QGAM] = [ 11.67, 23.35] = [ 38.16,152.62] Ry 
 Optimized for a Real-space Cutoff    1.63 Angstroem

   l    n(q)    QCUT    max X(q) W(low)/X(q) W(high)/X(q)  e(spline) 
   0     11    11.673    13.882    0.27E-04    0.79E-05    0.11E-06
   0     11    11.673    12.184    0.39E-04    0.13E-04    0.19E-06
   1     11    11.673     4.523    0.73E-05    0.76E-05    0.12E-06
   1     11    11.673     4.424    0.87E-05    0.13E-04    0.19E-06
   2     10    11.673    52.481    0.65E-04    0.36E-04    0.18E-06
   2     10    11.673    38.501    0.61E-04    0.33E-04    0.17E-06
   3     10    11.673    65.631    0.17E-03    0.14E-03    0.37E-06
   3     10    11.673    56.854    0.17E-03    0.14E-03    0.37E-06
 Optimization of the real space projectors (new method)

 maximal supplied QI-value         = 16.25
 optimisation between [QCUT,QGAM] = [ 11.54, 23.24] = [ 37.28,151.24] Ry 
 Optimized for a Real-space Cutoff    1.53 Angstroem

   l    n(q)    QCUT    max X(q) W(low)/X(q) W(high)/X(q)  e(spline) 
   2     10    11.539   110.144    0.12E-03    0.13E-03    0.25E-06
   2     10    11.539   103.200    0.12E-03    0.13E-03    0.25E-06
   0     11    11.539    68.437    0.46E-04    0.21E-04    0.32E-06
   0     11    11.539    33.971    0.37E-04    0.19E-04    0.29E-06
   1     10    11.539    17.065    0.51E-04    0.22E-04    0.13E-06
   1     10    11.539    12.540    0.41E-04    0.18E-04    0.11E-06
 Optimization of the real space projectors (new method)

 maximal supplied QI-value         = 16.25
 optimisation between [QCUT,QGAM] = [ 11.54, 23.24] = [ 37.28,151.24] Ry 
 Optimized for a Real-space Cutoff    1.45 Angstroem

   l    n(q)    QCUT    max X(q) W(low)/X(q) W(high)/X(q)  e(spline) 
   2      9    11.539    60.317    0.19E-03    0.47E-04    0.16E-06
   2      9    11.539    55.921    0.19E-03    0.48E-04    0.16E-06
   0     10    11.539    51.690    0.80E-04    0.50E-04    0.24E-06
   0     10    11.539    30.015    0.73E-04    0.45E-04    0.22E-06
   1     10    11.539    18.849    0.87E-04    0.16E-03    0.71E-07
   1     10    11.539    14.624    0.73E-04    0.13E-03    0.64E-07
 Optimization of the real space projectors (new method)

 maximal supplied QI-value         = 24.76
 optimisation between [QCUT,QGAM] = [ 11.64, 23.27] = [ 37.91,151.63] Ry 
 Optimized for a Real-space Cutoff    1.14 Angstroem

   l    n(q)    QCUT    max X(q) W(low)/X(q) W(high)/X(q)  e(spline) 
   0      8    11.635    20.381    0.10E-03    0.33E-03    0.24E-06
   0      8    11.635    15.268    0.11E-03    0.35E-03    0.26E-06
   1      7    11.635     5.964    0.24E-03    0.31E-03    0.30E-06
   1      7    11.635     5.382    0.22E-03    0.25E-03    0.26E-06
  PAW_PBE La 06Sep2000                  :
 energy of atom  1       EATOM= -865.9763
 kinetic energy error for atom=    0.0009 (will be added to EATOM!!)
  PAW_PBE Mn 06Sep2000                  :
 energy of atom  2       EATOM= -416.7541
 kinetic energy error for atom=    0.0024 (will be added to EATOM!!)
  PAW_PBE Ni 02Aug2007                  :
 energy of atom  3       EATOM=-1077.6739
 kinetic energy error for atom=    0.0030 (will be added to EATOM!!)
  PAW_PBE O 08Apr2002                   :
 energy of atom  4       EATOM= -432.3788
 kinetic energy error for atom=    0.0208 (will be added to EATOM!!)
 
 
 POSCAR: SCEL6_1_6_1_1_0_0/3                     
  positions in direct lattice
  velocities in cartesian coordinates
 exchange correlation table for  LEXCH =        8
   RHO(1)=    0.500       N(1)  =     2000
   RHO(2)=  100.500       N(2)  =     4000
 


--------------------------------------------------------------------------------------------------------


 ion  position               nearest neighbor table
   1  0.000  0.500  0.167-  29 2.75  29 2.75  16 2.76  23 2.76  16 2.76  23 2.76  17 2.76  17 2.76
                            24 2.76  24 2.76  28 2.78  30 2.78  10 3.36  10 3.36  12 3.36  12 3.36
   2  0.000  0.000  0.321-  29 2.55  23 2.64  16 2.64  16 2.64  23 2.64  28 2.76  28 2.76  11 3.20
                            11 3.20  10 3.37  10 3.37  10 3.37  10 3.37
   3  0.000  0.500  0.488-  28 2.54  22 2.63  15 2.63  15 2.63  22 2.63  27 2.76  27 2.76  10 3.22
                            10 3.22   9 3.37   9 3.37   9 3.37   9 3.37
   4  0.000  0.000  0.667-  25 2.71  27 2.71  13 2.73  20 2.73  13 2.73  20 2.73  14 2.73  14 2.73
                            21 2.73  21 2.73  26 2.75  26 2.75   7 3.36   7 3.36   7 3.36   7 3.36
   5  0.000  0.500  0.845-  30 2.54  19 2.63  18 2.63  18 2.63  19 2.63  25 2.76  25 2.76  12 3.22
                            12 3.22   8 3.37   8 3.37   8 3.37   8 3.37
   6  0.000  0.000  0.013-  29 2.55  24 2.64  17 2.64  17 2.64  24 2.64  30 2.76  30 2.76  11 3.20
                            11 3.20  12 3.37  12 3.37  12 3.37  12 3.37
   7  0.500  0.500  0.667-  26 1.94  26 1.94  13 1.96  20 1.96  14 1.96  21 1.96   4 3.36   4 3.36
                             4 3.36   4 3.36
   8  0.500  0.000  0.834-  18 1.90  19 1.90  25 1.94  25 1.94  13 1.95  20 1.95   5 3.37   5 3.37
                             5 3.37   5 3.37   4 3.38   4 3.38
   9  0.500  0.000  0.500-  15 1.90  22 1.90  27 1.94  27 1.94  21 1.95  14 1.95   3 3.37   3 3.37
                             3 3.37   3 3.37   4 3.38   4 3.38
  10  0.500  0.500  0.333-  28 1.94  28 1.94  16 1.95  23 1.95  22 2.00  15 2.00   3 3.22   3 3.22
                             1 3.36   1 3.36   2 3.37   2 3.37   2 3.37   2 3.37
  11  0.500  0.000  0.167-  16 1.93  23 1.93  17 1.93  24 1.93  29 1.94  29 1.94   2 3.20   2 3.20
                             6 3.20   6 3.20   1 3.36   1 3.36   1 3.36   1 3.36
  12  0.500  0.500  0.001-  30 1.94  30 1.94  17 1.95  24 1.95  19 2.00  18 2.00   5 3.22   5 3.22
                             1 3.36   1 3.36   6 3.37   6 3.37   6 3.37   6 3.37
  13  0.500  0.755  0.749-   8 1.95   7 1.96   4 2.73   4 2.73
  14  0.500  0.245  0.584-   9 1.95   7 1.96   4 2.73   4 2.73
  15  0.500  0.750  0.420-   9 1.90  10 2.00   3 2.63   3 2.63
  16  0.500  0.247  0.250-  11 1.93  10 1.95   2 2.64   2 2.64   1 2.76   1 2.76
  17  0.500  0.753  0.084-  11 1.93  12 1.95   6 2.64   6 2.64   1 2.76   1 2.76
  18  0.500  0.250  0.913-   8 1.90  12 2.00   5 2.63   5 2.63
  19  0.500  0.750  0.913-   8 1.90  12 2.00   5 2.63   5 2.63
  20  0.500  0.245  0.749-   8 1.95   7 1.96   4 2.73   4 2.73
  21  0.500  0.755  0.584-   9 1.95   7 1.96   4 2.73   4 2.73
  22  0.500  0.250  0.420-   9 1.90  10 2.00   3 2.63   3 2.63
  23  0.500  0.753  0.250-  11 1.93  10 1.95   2 2.64   2 2.64   1 2.76   1 2.76
  24  0.500  0.247  0.084-  11 1.93  12 1.95   6 2.64   6 2.64   1 2.76   1 2.76
  25  0.000  0.000  0.830-   8 1.94   8 1.94   4 2.71   5 2.76   5 2.76
  26  0.000  0.500  0.667-   7 1.94   7 1.94   4 2.75   4 2.75
  27  0.000  0.000  0.503-   9 1.94   9 1.94   4 2.71   3 2.76   3 2.76
  28  0.000  0.500  0.335-  10 1.94  10 1.94   3 2.54   2 2.76   2 2.76   1 2.78
  29  0.000  0.000  0.167-  11 1.94  11 1.94   2 2.55   6 2.55   1 2.75   1 2.75
  30  0.000  0.500  0.999-  12 1.94  12 1.94   5 2.54   6 2.76   6 2.76   1 2.78
 
  LATTYP: Found a simple orthorhombic cell.
 ALAT       =     3.8787660362
 B/A-ratio  =     1.4178999835
 C/A-ratio  =     4.2703768490
  
  Lattice vectors:
  
 A1 = (   3.8787660362,   0.0000000000,   0.0000000000)
 A2 = (   0.0000000000,   3.8888767899,   3.8888767899)
 A3 = (   0.0000000000, -11.7123701289,  11.7123701289)


Analysis of symmetry for initial positions (statically):
=====================================================================
 Subroutine PRICEL returns:
 Original cell was already a primitive cell.
 

 Routine SETGRP: Setting up the symmetry group for a 
 simple orthorhombic supercell.


 Subroutine GETGRP returns: Found  8 space group operations
 (whereof  4 operations were pure point group operations)
 out of a pool of  8 trial point group operations.


The static configuration has the point symmetry C_2v.
 The point group associated with its full space group is D_2h.


Analysis of symmetry for dynamics (positions and initial velocities):
=====================================================================
 Subroutine PRICEL returns:
 Original cell was already a primitive cell.
 

 Routine SETGRP: Setting up the symmetry group for a 
 simple orthorhombic supercell.


 Subroutine GETGRP returns: Found  8 space group operations
 (whereof  4 operations were pure point group operations)
 out of a pool of  8 trial point group operations.


The dynamic configuration has the point symmetry C_2v.
 The point group associated with its full space group is D_2h.


Analysis of structural, dynamic, and magnetic symmetry:
=====================================================================
 Subroutine PRICEL returns:
 Original cell was already a primitive cell.
 

 Routine SETGRP: Setting up the symmetry group for a 
 simple orthorhombic supercell.


 Subroutine GETGRP returns: Found  8 space group operations
 (whereof  4 operations were pure point group operations)
 out of a pool of  8 trial point group operations.


The magnetic configuration has the point symmetry C_2v.
 The point group associated with its full space group is D_2h.


 Subroutine INISYM returns: Found  8 space group operations
 (whereof  4 operations are pure point group operations),
 and found     1 'primitive' translations

 
 
 KPOINTS: Automatic mesh                          

Automatic generation of k-mesh.
 generate k-points for:    5    4    1
Space group operators:
 irot       det(A)        alpha          n_x          n_y          n_z        tau_x        tau_y        tau_z
    1     1.000000     0.000000     1.000000     0.000000     0.000000     0.000000     0.000000     0.000000
    2     1.000000   180.000000     0.000000    -0.707107     0.707107     0.000000     0.000000     0.000000
    3    -1.000000   180.000000     0.000000     0.707107     0.707107     0.000000     0.000000     0.000000
    4    -1.000000   180.000000     1.000000     0.000000     0.000000     0.000000     0.000000     0.000000
    5    -1.000000     0.000000     1.000000     0.000000     0.000000     0.000000     0.000000     0.333333
    6    -1.000000   180.000000     0.000000    -0.707107     0.707107     0.000000     0.000000     0.333333
    7     1.000000   180.000000     0.000000     0.707107     0.707107     0.000000     0.000000     0.333333
    8     1.000000   180.000000     1.000000     0.000000     0.000000     0.000000     0.000000     0.333333
 
 Subroutine IBZKPT returns following result:
 ===========================================
 
 Found      9 irreducible k-points:
 
 Following reciprocal coordinates:
            Coordinates               Weight
  0.000000  0.000000  0.000000      1.000000
  0.200000  0.000000  0.000000      2.000000
  0.400000  0.000000  0.000000      2.000000
  0.000000  0.250000  0.000000      2.000000
  0.200000  0.250000  0.000000      4.000000
  0.400000  0.250000  0.000000      4.000000
  0.000000  0.500000  0.000000      1.000000
  0.200000  0.500000  0.000000      2.000000
  0.400000  0.500000  0.000000      2.000000
 
 Following cartesian coordinates:
            Coordinates               Weight
  0.000000  0.000000  0.000000      1.000000
  0.051563  0.000000  0.000000      2.000000
  0.103126  0.000000  0.000000      2.000000
  0.000000  0.032143  0.032143      2.000000
  0.051563  0.032143  0.032143      4.000000
  0.103126  0.032143  0.032143      4.000000
  0.000000  0.064286  0.064286      1.000000
  0.051563  0.064286  0.064286      2.000000
  0.103126  0.064286  0.064286      2.000000
 
 TETIRR: Found     54 inequivalent tetrahedra from      120


--------------------------------------------------------------------------------------------------------




 Dimension of arrays:
   k-points           NKPTS =      9   k-points in BZ     NKDIM =      9   number of bands    NBANDS=    146
   number of dos      NEDOS =    301   number of ions     NIONS =     30
   non local maximal  LDIM  =      8   non local SUM 2l+1 LMDIM =     32
   total plane-waves  NPLWV = 158760
   max r-space proj   IRMAX =   8159   max aug-charges    IRDMAX=  23675
   dimension x,y,z NGX =    30 NGY =   42 NGZ =  126
   dimension x,y,z NGXF=    60 NGYF=   84 NGZF=  252
   support grid    NGXF=    60 NGYF=   84 NGZF=  252
   ions per type =               6   3   3  18
   NGX,Y,Z   is equivalent  to a cutoff of  12.86, 12.70, 12.65 a.u.
   NGXF,Y,Z  is equivalent  to a cutoff of  25.72, 25.39, 25.29 a.u.

 SYSTEM =  final                                   
 POSCAR =  SCEL6_1_6_1_1_0_0/3                     

 Startparameter for this run:
   NWRITE =      2    write-flag & timer
   PREC   = accura    normal or accurate (medium, high low for compatibility)
   ISTART =      0    job   : 0-new  1-cont  2-samecut
   ICHARG =      1    charge: 1-file 2-atom 10-const
   ISPIN  =      2    spin polarized calculation?
   LNONCOLLINEAR =      F non collinear calculations
   LSORBIT =      F    spin-orbit coupling
   INIWAV =      1    electr: 0-lowe 1-rand  2-diag
   LASPH  =      F    aspherical Exc in radial PAW
   METAGGA=      F    non-selfconsistent MetaGGA calc.

 Electronic Relaxation 1
   ENCUT  =  520.0 eV  38.22 Ry    6.18 a.u.   7.21 10.23 30.80*2*pi/ulx,y,z
   ENINI  =  520.0     initial cutoff
   ENAUG  =  605.4 eV  augmentation charge cutoff
   NELM   =    100;   NELMIN=  2; NELMDL= -5     # of ELM steps 
   EDIFF  = 0.1E-02   stopping-criterion for ELM
   LREAL  =      T    real-space projection
   NLSPLINE    = F    spline interpolate recip. space projectors
   LCOMPAT=      F    compatible to vasp.4.4
   GGA_COMPAT  = T    GGA compatible to vasp.4.4-vasp.4.6
   LMAXPAW     = -100 max onsite density
   LMAXMIX     =    6 max onsite mixed and CHGCAR
   VOSKOWN=      0    Vosko Wilk Nusair interpolation
   ROPT   =   -0.00025  -0.00025  -0.00025  -0.00025
 Ionic relaxation
   EDIFFG = 0.1E-01   stopping-criterion for IOM
   NSW    =      0    number of steps for IOM
   NBLOCK =      1;   KBLOCK =      1    inner block; outer block 
   IBRION =     -1    ionic relax: 0-MD 1-quasi-New 2-CG
   NFREE  =      0    steps in history (QN), initial steepest desc. (CG)
   ISIF   =      2    stress and relaxation
   IWAVPR =     10    prediction:  0-non 1-charg 2-wave 3-comb
   ISYM   =      2    0-nonsym 1-usesym 2-fastsym
   LCORR  =      T    Harris-Foulkes like correction to forces

   POTIM  = 0.5000    time-step for ionic-motion
   TEIN   =    0.0    initial temperature
   TEBEG  =    0.0;   TEEND  =   0.0 temperature during run
   SMASS  =  -3.00    Nose mass-parameter (am)
   estimated Nose-frequenzy (Omega)   =  0.10E-29 period in steps =****** mass=  -0.344E-27a.u.
   SCALEE = 1.0000    scale energy and forces
   NPACO  =    256;   APACO  = 16.0  distance and # of slots for P.C.
   PSTRESS=    0.0 pullay stress

  Mass of Ions in am
   POMASS = 138.90 54.94 58.69 16.00
  Ionic Valenz
   ZVAL   =  11.00  7.00 10.00  6.00
  Atomic Wigner-Seitz radii
   RWIGS  =  -1.00 -1.00 -1.00 -1.00
  virtual crystal weights 
   VCA    =   1.00  1.00  1.00  1.00
   NELECT =     225.0000    total number of electrons
   NUPDOWN=      -1.0000    fix difference up-down

 DOS related values:
   EMIN   =  10.00;   EMAX   =-10.00  energy-range for DOS
   EFERMI =   0.00
   ISMEAR =    -5;   SIGMA  =   0.05  broadening in eV -4-tet -1-fermi 0-gaus

 Electronic relaxation 2 (details)
   IALGO  =     68    algorithm
   LDIAG  =      T    sub-space diagonalisation (order eigenvalues)
   LSUBROT=      F    optimize rotation matrix (better conditioning)
   TURBO    =      0    0=normal 1=particle mesh
   IRESTART =      0    0=no restart 2=restart with 2 vectors
   NREBOOT  =      0    no. of reboots
   NMIN     =      0    reboot dimension
   EREF     =   0.00    reference energy to select bands
   IMIX   =      4    mixing-type and parameters
     AMIX     =   0.40;   BMIX     =  1.00
     AMIX_MAG =   1.60;   BMIX_MAG =  1.00
     AMIN     =   0.10
     WC   =   100.;   INIMIX=   1;  MIXPRE=   1;  MAXMIX= -45

 Intra band minimization:
   WEIMIN = 0.0000     energy-eigenvalue tresh-hold
   EBREAK =  0.17E-05  absolut break condition
   DEPER  =   0.30     relativ break condition  

   TIME   =   0.40     timestep for ELM

  volume/ion in A,a.u.               =      11.78        79.48
  Fermi-wavevector in a.u.,A,eV,Ry     =   1.408439  2.661564 26.989896  1.983701
  Thomas-Fermi vector in A             =   2.530597
 
 Write flags
   LWAVE        =      F    write WAVECAR
   LDOWNSAMPLE  =      F    k-point downsampling of WAVECAR
   LCHARG       =      T    write CHGCAR
   LVTOT        =      F    write LOCPOT, total local potential
   LVHAR        =      F    write LOCPOT, Hartree potential only
   LELF         =      F    write electronic localiz. function (ELF)
   LORBIT       =     11    0 simple, 1 ext, 2 COOP (PROOUT), +10 PAW based schemes


 Dipole corrections
   LMONO  =      F    monopole corrections only (constant potential shift)
   LDIPOL =      F    correct potential (dipole corrections)
   IDIPOL =      0    1-x, 2-y, 3-z, 4-all directions 
   EPSILON=  1.0000000 bulk dielectric constant

 LDA+U is selected, type is set to LDAUTYPE =  2
   angular momentum for each species LDAUL =     0    2    2    0
   U (eV)           for each species LDAUU =   0.0  3.9  6.2  0.0
   J (eV)           for each species LDAUJ =   0.0  0.0  0.0  0.0
 Exchange correlation treatment:
   GGA     =    --    GGA type
   LEXCH   =     8    internal setting for exchange type
   VOSKOWN=      0    Vosko Wilk Nusair interpolation
   LHFCALC =     F    Hartree Fock is set to
   LHFONE  =     F    Hartree Fock one center treatment
   AEXX    =    0.0000 exact exchange contribution

 Linear response parameters
   LEPSILON=     F    determine dielectric tensor
   LRPA    =     F    only Hartree local field effects (RPA)
   LNABLA  =     F    use nabla operator in PAW spheres
   LVEL    =     F    velocity operator in full k-point grid
   LINTERFAST=   F  fast interpolation
   KINTER  =     0    interpolate to denser k-point grid
   CSHIFT  =0.1000    complex shift for real part using Kramers Kronig
   OMEGAMAX=  -1.0    maximum frequency
   DEG_THRESHOLD= 0.2000000E-02 threshold for treating states as degnerate
   RTIME   =   -0.100 relaxation time in fs
  (WPLASMAI=    0.000 imaginary part of plasma frequency in eV, 0.658/RTIME)
   DFIELD  = 0.0000000 0.0000000 0.0000000 field for delta impulse in time
 
 Orbital magnetization related:
   ORBITALMAG=     F  switch on orbital magnetization
   LCHIMAG   =     F  perturbation theory with respect to B field
   DQ        =  0.001000  dq finite difference perturbation B field
   LLRAUG    =     F  two centre corrections for induced B field



--------------------------------------------------------------------------------------------------------


 Static calculation
 charge density and potential will be updated during run
 spin polarized calculation
 RMM-DIIS sequential band-by-band and
  variant of blocked Davidson during initial phase
 perform sub-space diagonalisation
    before iterative eigenvector-optimisation
 modified Broyden-mixing scheme, WC =      100.0
 initial mixing is a Kerker type mixing with AMIX =  0.4000 and BMIX =      1.0000
 Hartree-type preconditioning will be used
 using additional bands           33
 real space projection scheme for non local part
 use partial core corrections
 calculate Harris-corrections to forces 
   (improved forces if not selfconsistent)
 use gradient corrections 
 use of overlap-Matrix (Vanderbilt PP)
 Fermi weights with tetrahedron method with Bloechl corrections


--------------------------------------------------------------------------------------------------------


  energy-cutoff  :      520.00
  volume of cell :      353.34
      direct lattice vectors                 reciprocal lattice vectors
     3.878766036  0.000000000  0.000000000     0.257813952  0.000000000  0.000000000
     0.000000000  3.888876790  3.888876790     0.000000000  0.128571829  0.128571829
     0.000000000-11.712370129 11.712370129     0.000000000 -0.042689908  0.042689908

  length of vectors
     3.878766036  5.499702299 16.563792684     0.257813952  0.181828024  0.060372646


 
 k-points in units of 2pi/SCALE and weight: Automatic mesh                          
   0.00000000  0.00000000  0.00000000       0.050
   0.05156279  0.00000000  0.00000000       0.100
   0.10312558  0.00000000  0.00000000       0.100
   0.00000000  0.03214296  0.03214296       0.100
   0.05156279  0.03214296  0.03214296       0.200
   0.10312558  0.03214296  0.03214296       0.200
   0.00000000  0.06428591  0.06428591       0.050
   0.05156279  0.06428591  0.06428591       0.100
   0.10312558  0.06428591  0.06428591       0.100
 
 k-points in reciprocal lattice and weights: Automatic mesh                          
   0.00000000  0.00000000  0.00000000       0.050
   0.20000000  0.00000000  0.00000000       0.100
   0.40000000  0.00000000  0.00000000       0.100
   0.00000000  0.25000000  0.00000000       0.100
   0.20000000  0.25000000  0.00000000       0.200
   0.40000000  0.25000000  0.00000000       0.200
   0.00000000  0.50000000  0.00000000       0.050
   0.20000000  0.50000000  0.00000000       0.100
   0.40000000  0.50000000  0.00000000       0.100
 
 position of ions in fractional coordinates (direct lattice) 
   0.00000000  0.50000000  0.16666670
   0.00000000  0.00000000  0.32064337
   0.00000000  0.50000000  0.48804758
   0.00000000  0.00000000  0.66666670
   0.00000000  0.50000000  0.84528572
   0.00000000  0.00000000  0.01268993
   0.50000000  0.50000000  0.66666670
   0.50000000  0.00000000  0.83379114
   0.50000000  0.00000000  0.49954216
   0.50000000  0.50000000  0.33253466
   0.50000000  0.00000000  0.16666670
   0.50000000  0.50000000  0.00079864
   0.50000000  0.75472619  0.74910634
   0.50000000  0.24527381  0.58422696
   0.50000000  0.74999890  0.42021887
   0.50000000  0.24681098  0.24983144
   0.50000000  0.75318902  0.08350186
   0.50000000  0.25000110  0.91311453
   0.50000000  0.74999890  0.91311453
   0.50000000  0.24527381  0.74910634
   0.50000000  0.75472619  0.58422696
   0.50000000  0.25000110  0.42021887
   0.50000000  0.75318902  0.24983144
   0.50000000  0.24681098  0.08350186
   0.00000000  0.00000000  0.83038493
   0.00000000  0.50000000  0.66666670
   0.00000000  0.00000000  0.50294837
   0.00000000  0.50000000  0.33479975
   0.00000000  0.00000000  0.16666670
   0.00000000  0.50000000  0.99853355
 
 position of ions in cartesian coordinates  (Angst):
   0.00000000 -0.00762368  3.89650047
   0.00000000 -3.75549381  3.75549381
   0.00000000 -3.77175555  7.66063234
   0.00000000 -7.80824714  7.80824714
   0.00000000 -7.95586077 11.84473756
   0.00000000 -0.14862917  0.14862917
   1.93938302 -5.86380875  9.75268554
   1.93938302 -9.76567042  9.76567042
   1.93938302 -5.85082270  5.85082270
   1.93938302 -1.95033060  5.83920739
   1.93938302 -1.95206208  1.95206208
   1.93938302  1.93508441  1.95379238
   1.93938302 -5.83877363 11.70884792
   1.93938302 -5.88884269  7.79652198
   1.93938302 -2.00510562  7.83841222
   1.93938302 -1.96630086  3.88593582
   1.93938302  1.95105466  3.90706396
   1.93938302 -9.72251188 11.66695886
   1.93938302 -7.77808207 13.61138867
   1.93938302 -7.81997113  9.72765042
   1.93938302 -3.90764519  9.77771948
   1.93938302 -3.94953543  5.89398241
   1.93938302  0.00294097  5.85517765
   1.93938302 -0.01818717  1.93782213
   0.00000000 -9.72577560  9.72577560
   0.00000000 -5.86380875  9.75268554
   0.00000000 -5.89071752  5.89071752
   0.00000000 -1.97686022  5.86573701
   0.00000000 -1.95206208  1.95206208
   0.00000000 -9.75075610 13.63963289
 


--------------------------------------------------------------------------------------------------------


 k-point  1 :   0.0000 0.0000 0.0000  plane waves:    9535
 k-point  2 :   0.2000 0.0000 0.0000  plane waves:    9533
 k-point  3 :   0.4000 0.0000 0.0000  plane waves:    9512
 k-point  4 :   0.0000 0.2500 0.0000  plane waves:    9520
 k-point  5 :   0.2000 0.2500 0.0000  plane waves:    9511
 k-point  6 :   0.4000 0.2500 0.0000  plane waves:    9524
 k-point  7 :   0.0000 0.5000 0.0000  plane waves:    9488
 k-point  8 :   0.2000 0.5000 0.0000  plane waves:    9494
 k-point  9 :   0.4000 0.5000 0.0000  plane waves:    9544

 maximum and minimum number of plane-waves per node :       968      926

 maximum number of plane-waves:      9544
 maximum index in each direction: 
   IXMAX=    7   IYMAX=   10   IZMAX=   30
   IXMIN=   -7   IYMIN=  -10   IZMIN=  -30


 real space projection operators:
  total allocation   :      19981.53 KBytes
  max/ min on nodes  :       2084.94       1949.94


 parallel 3D FFT for wavefunctions:
    minimum data exchange during FFTs selected (reduces bandwidth)
 parallel 3D FFT for charge:
    minimum data exchange during FFTs selected (reduces bandwidth)


 total amount of memory used by VASP MPI-rank0    68396. kBytes
=======================================================================

   base      :      30000. kBytes
   nonlr-proj:       6730. kBytes
   fftplans  :       2638. kBytes
   grid      :       7416. kBytes
   one-center:        294. kBytes
   wavefun   :      21318. kBytes
 
     INWAV:  cpu time    0.0000: real time    0.0000
 Broyden mixing: mesh for mixing (old mesh)
   NGX = 15   NGY = 21   NGZ = 61
  (NGX  = 60   NGY  = 84   NGZ  =252)
  gives a total of  19215 points

 initial charge density was supplied:
 charge density of overlapping atoms calculated
 number of electron     225.0000000 magnetization      21.0000000
 keeping initial charge density in first step


--------------------------------------------------------------------------------------------------------


 Maximum index for non-local projection operator          835
 Maximum index for augmentation-charges          969 (set IRDMAX)


--------------------------------------------------------------------------------------------------------


 First call to EWALD:  gamma=   0.251
 Maximum number of real-space cells 5x 3x 1
 Maximum number of reciprocal cells 2x 2x 6

    FEWALD:  cpu time    0.0018: real time    0.0018


--------------------------------------- Iteration      1(   1)  ---------------------------------------


    POTLOK:  cpu time    0.0754: real time    0.0777
    SETDIJ:  cpu time    0.0154: real time    0.0156
atom =   1  type =  1  l = 0
 
 onsite density matrix
 
spin component  1
 
  1.0989
 
spin component  2
 
  1.0989
 
 occupancies and eigenvectors
 
  o =  1.0989  v =  1.0000  0.0000      0.0000  0.0000
  o =  1.0989  v =  0.0000  1.0000      0.0000  0.0000
atom =   2  type =  1  l = 0
 
 onsite density matrix
 
spin component  1
 
  1.0989
 
spin component  2
 
  1.0989
 
 occupancies and eigenvectors
 
  o =  1.0989  v =  1.0000  0.0000      0.0000  0.0000
  o =  1.0989  v =  0.0000  1.0000      0.0000  0.0000
atom =   3  type =  1  l = 0
 
 onsite density matrix
 
spin component  1
 
  1.0989
 
spin component  2
 
  1.0989
 
 occupancies and eigenvectors
 
  o =  1.0989  v =  1.0000  0.0000      0.0000  0.0000
  o =  1.0989  v =  0.0000  1.0000      0.0000  0.0000
atom =   4  type =  1  l = 0
 
 onsite density matrix
 
spin component  1
 
  1.0989
 
spin component  2
 
  1.0989
 
 occupancies and eigenvectors
 
  o =  1.0989  v =  1.0000  0.0000      0.0000  0.0000
  o =  1.0989  v =  0.0000  1.0000      0.0000  0.0000
atom =   5  type =  1  l = 0
 
 onsite density matrix
 
spin component  1
 
  1.0989
 
spin component  2
 
  1.0989
 
 occupancies and eigenvectors
 
  o =  1.0989  v =  1.0000  0.0000      0.0000  0.0000
  o =  1.0989  v =  0.0000  1.0000      0.0000  0.0000
atom =   6  type =  1  l = 0
 
 onsite density matrix
 
spin component  1
 
  1.0989
 
spin component  2
 
  1.0989
 
 occupancies and eigenvectors
 
  o =  1.0989  v =  1.0000  0.0000      0.0000  0.0000
  o =  1.0989  v =  0.0000  1.0000      0.0000  0.0000
atom =   7  type =  2  l = 2
 
 onsite density matrix
 
spin component  1
 
  0.8272  0.0000  0.0000  0.0000  0.0000
  0.0000  0.8272  0.0000  0.0000  0.0000
  0.0000  0.0000  0.8272  0.0000  0.0000
  0.0000  0.0000  0.0000  0.8272  0.0000
  0.0000  0.0000  0.0000  0.0000  0.8272
 
spin component  2
 
  0.2256  0.0000  0.0000  0.0000  0.0000
  0.0000  0.2256  0.0000  0.0000  0.0000
  0.0000  0.0000  0.2256  0.0000  0.0000
  0.0000  0.0000  0.0000  0.2256  0.0000
  0.0000  0.0000  0.0000  0.0000  0.2256
 
 occupancies and eigenvectors
 
  o =  0.2256  v =  0.0000  0.0000  0.0000  0.0000  0.0000  0.0000  0.0000  1.0000  0.0000  0.0000      0.0000  0.0000  0.0000  0.0000  0.0000  0.0000  0.0000  0.0000  0.0000  0.0000
  o =  0.2256  v =  0.0000  0.0000  0.0000  0.0000  0.0000  1.0000  0.0000  0.0000  0.0000  0.0000      0.0000  0.0000  0.0000  0.0000  0.0000  0.0000  0.0000  0.0000  0.0000  0.0000
  o =  0.2256  v =  0.0000  0.0000  0.0000  0.0000  0.0000  0.0000  1.0000  0.0000  0.0000  0.0000      0.0000  0.0000  0.0000  0.0000  0.0000  0.0000  0.0000  0.0000  0.0000  0.0000
  o =  0.2256  v =  0.0000  0.0000  0.0000  0.0000  0.0000  0.0000  0.0000  0.0000  1.0000  0.0000      0.0000  0.0000  0.0000  0.0000  0.0000  0.0000  0.0000  0.0000  0.0000  0.0000
  o =  0.2256  v =  0.0000  0.0000  0.0000  0.0000  0.0000  0.0000  0.0000  0.0000  0.0000  1.0000      0.0000  0.0000  0.0000  0.0000  0.0000  0.0000  0.0000  0.0000  0.0000  0.0000
  o =  0.8272  v =  0.0000  1.0000  0.0000  0.0000  0.0000  0.0000  0.0000  0.0000  0.0000  0.0000      0.0000  0.0000  0.0000  0.0000  0.0000  0.0000  0.0000  0.0000  0.0000  0.0000
  o =  0.8272  v =  0.0000  0.0000  1.0000  0.0000  0.0000  0.0000  0.0000  0.0000  0.0000  0.0000      0.0000  0.0000  0.0000  0.0000  0.0000  0.0000  0.0000  0.0000  0.0000  0.0000
  o =  0.8272  v =  1.0000  0.0000  0.0000  0.0000  0.0000  0.0000  0.0000  0.0000  0.0000  0.0000      0.0000  0.0000  0.0000  0.0000  0.0000  0.0000  0.0000  0.0000  0.0000  0.0000
  o =  0.8272  v =  0.0000  0.0000  0.0000  1.0000  0.0000  0.0000  0.0000  0.0000  0.0000  0.0000      0.0000  0.0000  0.0000  0.0000  0.0000  0.0000  0.0000  0.0000  0.0000  0.0000
  o =  0.8272  v =  0.0000  0.0000  0.0000  0.0000  1.0000  0.0000  0.0000  0.0000  0.0000  0.0000      0.0000  0.0000  0.0000  0.0000  0.0000  0.0000  0.0000  0.0000  0.0000  0.0000
atom =   8  type =  2  l = 2
 
 onsite density matrix
 
spin component  1
 
  0.8272  0.0000  0.0000  0.0000  0.0000
  0.0000  0.8272  0.0000  0.0000  0.0000
  0.0000  0.0000  0.8272  0.0000  0.0000
  0.0000  0.0000  0.0000  0.8272  0.0000
  0.0000  0.0000  0.0000  0.0000  0.8272
 
spin component  2
 
  0.2256  0.0000  0.0000  0.0000  0.0000
  0.0000  0.2256  0.0000  0.0000  0.0000
  0.0000  0.0000  0.2256  0.0000  0.0000
  0.0000  0.0000  0.0000  0.2256  0.0000
  0.0000  0.0000  0.0000  0.0000  0.2256
 
 occupancies and eigenvectors
 
  o =  0.2256  v =  0.0000  0.0000  0.0000  0.0000  0.0000  0.0000  0.0000  1.0000  0.0000  0.0000      0.0000  0.0000  0.0000  0.0000  0.0000  0.0000  0.0000  0.0000  0.0000  0.0000
  o =  0.2256  v =  0.0000  0.0000  0.0000  0.0000  0.0000  1.0000  0.0000  0.0000  0.0000  0.0000      0.0000  0.0000  0.0000  0.0000  0.0000  0.0000  0.0000  0.0000  0.0000  0.0000
  o =  0.2256  v =  0.0000  0.0000  0.0000  0.0000  0.0000  0.0000  1.0000  0.0000  0.0000  0.0000      0.0000  0.0000  0.0000  0.0000  0.0000  0.0000  0.0000  0.0000  0.0000  0.0000
  o =  0.2256  v =  0.0000  0.0000  0.0000  0.0000  0.0000  0.0000  0.0000  0.0000  1.0000  0.0000      0.0000  0.0000  0.0000  0.0000  0.0000  0.0000  0.0000  0.0000  0.0000  0.0000
  o =  0.2256  v =  0.0000  0.0000  0.0000  0.0000  0.0000  0.0000  0.0000  0.0000  0.0000  1.0000      0.0000  0.0000  0.0000  0.0000  0.0000  0.0000  0.0000  0.0000  0.0000  0.0000
  o =  0.8272  v =  0.0000  1.0000  0.0000  0.0000  0.0000  0.0000  0.0000  0.0000  0.0000  0.0000      0.0000  0.0000  0.0000  0.0000  0.0000  0.0000  0.0000  0.0000  0.0000  0.0000
  o =  0.8272  v =  0.0000  0.0000  1.0000  0.0000  0.0000  0.0000  0.0000  0.0000  0.0000  0.0000      0.0000  0.0000  0.0000  0.0000  0.0000  0.0000  0.0000  0.0000  0.0000  0.0000
  o =  0.8272  v =  1.0000  0.0000  0.0000  0.0000  0.0000  0.0000  0.0000  0.0000  0.0000  0.0000      0.0000  0.0000  0.0000  0.0000  0.0000  0.0000  0.0000  0.0000  0.0000  0.0000
  o =  0.8272  v =  0.0000  0.0000  0.0000  1.0000  0.0000  0.0000  0.0000  0.0000  0.0000  0.0000      0.0000  0.0000  0.0000  0.0000  0.0000  0.0000  0.0000  0.0000  0.0000  0.0000
  o =  0.8272  v =  0.0000  0.0000  0.0000  0.0000  1.0000  0.0000  0.0000  0.0000  0.0000  0.0000      0.0000  0.0000  0.0000  0.0000  0.0000  0.0000  0.0000  0.0000  0.0000  0.0000
atom =   9  type =  2  l = 2
 
 onsite density matrix
 
spin component  1
 
  0.8272  0.0000  0.0000  0.0000  0.0000
  0.0000  0.8272  0.0000  0.0000  0.0000
  0.0000  0.0000  0.8272  0.0000  0.0000
  0.0000  0.0000  0.0000  0.8272  0.0000
  0.0000  0.0000  0.0000  0.0000  0.8272
 
spin component  2
 
  0.2256  0.0000  0.0000  0.0000  0.0000
  0.0000  0.2256  0.0000  0.0000  0.0000
  0.0000  0.0000  0.2256  0.0000  0.0000
  0.0000  0.0000  0.0000  0.2256  0.0000
  0.0000  0.0000  0.0000  0.0000  0.2256
 
 occupancies and eigenvectors
 
  o =  0.2256  v =  0.0000  0.0000  0.0000  0.0000  0.0000  0.0000  0.0000  1.0000  0.0000  0.0000      0.0000  0.0000  0.0000  0.0000  0.0000  0.0000  0.0000  0.0000  0.0000  0.0000
  o =  0.2256  v =  0.0000  0.0000  0.0000  0.0000  0.0000  1.0000  0.0000  0.0000  0.0000  0.0000      0.0000  0.0000  0.0000  0.0000  0.0000  0.0000  0.0000  0.0000  0.0000  0.0000
  o =  0.2256  v =  0.0000  0.0000  0.0000  0.0000  0.0000  0.0000  1.0000  0.0000  0.0000  0.0000      0.0000  0.0000  0.0000  0.0000  0.0000  0.0000  0.0000  0.0000  0.0000  0.0000
  o =  0.2256  v =  0.0000  0.0000  0.0000  0.0000  0.0000  0.0000  0.0000  0.0000  1.0000  0.0000      0.0000  0.0000  0.0000  0.0000  0.0000  0.0000  0.0000  0.0000  0.0000  0.0000
  o =  0.2256  v =  0.0000  0.0000  0.0000  0.0000  0.0000  0.0000  0.0000  0.0000  0.0000  1.0000      0.0000  0.0000  0.0000  0.0000  0.0000  0.0000  0.0000  0.0000  0.0000  0.0000
  o =  0.8272  v =  0.0000  1.0000  0.0000  0.0000  0.0000  0.0000  0.0000  0.0000  0.0000  0.0000      0.0000  0.0000  0.0000  0.0000  0.0000  0.0000  0.0000  0.0000  0.0000  0.0000
  o =  0.8272  v =  0.0000  0.0000  1.0000  0.0000  0.0000  0.0000  0.0000  0.0000  0.0000  0.0000      0.0000  0.0000  0.0000  0.0000  0.0000  0.0000  0.0000  0.0000  0.0000  0.0000
  o =  0.8272  v =  1.0000  0.0000  0.0000  0.0000  0.0000  0.0000  0.0000  0.0000  0.0000  0.0000      0.0000  0.0000  0.0000  0.0000  0.0000  0.0000  0.0000  0.0000  0.0000  0.0000
  o =  0.8272  v =  0.0000  0.0000  0.0000  1.0000  0.0000  0.0000  0.0000  0.0000  0.0000  0.0000      0.0000  0.0000  0.0000  0.0000  0.0000  0.0000  0.0000  0.0000  0.0000  0.0000
  o =  0.8272  v =  0.0000  0.0000  0.0000  0.0000  1.0000  0.0000  0.0000  0.0000  0.0000  0.0000      0.0000  0.0000  0.0000  0.0000  0.0000  0.0000  0.0000  0.0000  0.0000  0.0000
atom =  10  type =  3  l = 2
 
 onsite density matrix
 
spin component  1
 
  1.1008  0.0000  0.0000  0.0000  0.0000
  0.0000  1.1008  0.0000  0.0000  0.0000
  0.0000  0.0000  1.1008  0.0000  0.0000
  0.0000  0.0000  0.0000  1.1008  0.0000
  0.0000  0.0000  0.0000  0.0000  1.1008
 
spin component  2
 
  0.5927  0.0000  0.0000  0.0000  0.0000
  0.0000  0.5927  0.0000  0.0000  0.0000
  0.0000  0.0000  0.5927  0.0000  0.0000
  0.0000  0.0000  0.0000  0.5927  0.0000
  0.0000  0.0000  0.0000  0.0000  0.5927
 
 occupancies and eigenvectors
 
  o =  0.5927  v =  0.0000  0.0000  0.0000  0.0000  0.0000  1.0000  0.0000  0.0000  0.0000  0.0000      0.0000  0.0000  0.0000  0.0000  0.0000  0.0000  0.0000  0.0000  0.0000  0.0000
  o =  0.5927  v =  0.0000  0.0000  0.0000  0.0000  0.0000  0.0000  1.0000  0.0000  0.0000  0.0000      0.0000  0.0000  0.0000  0.0000  0.0000  0.0000  0.0000  0.0000  0.0000  0.0000
  o =  0.5927  v =  0.0000  0.0000  0.0000  0.0000  0.0000  0.0000  0.0000  1.0000  0.0000  0.0000      0.0000  0.0000  0.0000  0.0000  0.0000  0.0000  0.0000  0.0000  0.0000  0.0000
  o =  0.5927  v =  0.0000  0.0000  0.0000  0.0000  0.0000  0.0000  0.0000  0.0000  1.0000  0.0000      0.0000  0.0000  0.0000  0.0000  0.0000  0.0000  0.0000  0.0000  0.0000  0.0000
  o =  0.5927  v =  0.0000  0.0000  0.0000  0.0000  0.0000  0.0000  0.0000  0.0000  0.0000  1.0000      0.0000  0.0000  0.0000  0.0000  0.0000  0.0000  0.0000  0.0000  0.0000  0.0000
  o =  1.1008  v =  1.0000  0.0000  0.0000  0.0000  0.0000  0.0000  0.0000  0.0000  0.0000  0.0000      0.0000  0.0000  0.0000  0.0000  0.0000  0.0000  0.0000  0.0000  0.0000  0.0000
  o =  1.1008  v =  0.0000  1.0000  0.0000  0.0000  0.0000  0.0000  0.0000  0.0000  0.0000  0.0000      0.0000  0.0000  0.0000  0.0000  0.0000  0.0000  0.0000  0.0000  0.0000  0.0000
  o =  1.1008  v =  0.0000  0.0000  1.0000  0.0000  0.0000  0.0000  0.0000  0.0000  0.0000  0.0000      0.0000  0.0000  0.0000  0.0000  0.0000  0.0000  0.0000  0.0000  0.0000  0.0000
  o =  1.1008  v =  0.0000  0.0000  0.0000  1.0000  0.0000  0.0000  0.0000  0.0000  0.0000  0.0000      0.0000  0.0000  0.0000  0.0000  0.0000  0.0000  0.0000  0.0000  0.0000  0.0000
  o =  1.1008  v =  0.0000  0.0000  0.0000  0.0000  1.0000  0.0000  0.0000  0.0000  0.0000  0.0000      0.0000  0.0000  0.0000  0.0000  0.0000  0.0000  0.0000  0.0000  0.0000  0.0000
atom =  11  type =  3  l = 2
 
 onsite density matrix
 
spin component  1
 
  1.1008  0.0000  0.0000  0.0000  0.0000
  0.0000  1.1008  0.0000  0.0000  0.0000
  0.0000  0.0000  1.1008  0.0000  0.0000
  0.0000  0.0000  0.0000  1.1008  0.0000
  0.0000  0.0000  0.0000  0.0000  1.1008
 
spin component  2
 
  0.5927  0.0000  0.0000  0.0000  0.0000
  0.0000  0.5927  0.0000  0.0000  0.0000
  0.0000  0.0000  0.5927  0.0000  0.0000
  0.0000  0.0000  0.0000  0.5927  0.0000
  0.0000  0.0000  0.0000  0.0000  0.5927
 
 occupancies and eigenvectors
 
  o =  0.5927  v =  0.0000  0.0000  0.0000  0.0000  0.0000  1.0000  0.0000  0.0000  0.0000  0.0000      0.0000  0.0000  0.0000  0.0000  0.0000  0.0000  0.0000  0.0000  0.0000  0.0000
  o =  0.5927  v =  0.0000  0.0000  0.0000  0.0000  0.0000  0.0000  1.0000  0.0000  0.0000  0.0000      0.0000  0.0000  0.0000  0.0000  0.0000  0.0000  0.0000  0.0000  0.0000  0.0000
  o =  0.5927  v =  0.0000  0.0000  0.0000  0.0000  0.0000  0.0000  0.0000  1.0000  0.0000  0.0000      0.0000  0.0000  0.0000  0.0000  0.0000  0.0000  0.0000  0.0000  0.0000  0.0000
  o =  0.5927  v =  0.0000  0.0000  0.0000  0.0000  0.0000  0.0000  0.0000  0.0000  1.0000  0.0000      0.0000  0.0000  0.0000  0.0000  0.0000  0.0000  0.0000  0.0000  0.0000  0.0000
  o =  0.5927  v =  0.0000  0.0000  0.0000  0.0000  0.0000  0.0000  0.0000  0.0000  0.0000  1.0000      0.0000  0.0000  0.0000  0.0000  0.0000  0.0000  0.0000  0.0000  0.0000  0.0000
  o =  1.1008  v =  1.0000  0.0000  0.0000  0.0000  0.0000  0.0000  0.0000  0.0000  0.0000  0.0000      0.0000  0.0000  0.0000  0.0000  0.0000  0.0000  0.0000  0.0000  0.0000  0.0000
  o =  1.1008  v =  0.0000  1.0000  0.0000  0.0000  0.0000  0.0000  0.0000  0.0000  0.0000  0.0000      0.0000  0.0000  0.0000  0.0000  0.0000  0.0000  0.0000  0.0000  0.0000  0.0000
  o =  1.1008  v =  0.0000  0.0000  1.0000  0.0000  0.0000  0.0000  0.0000  0.0000  0.0000  0.0000      0.0000  0.0000  0.0000  0.0000  0.0000  0.0000  0.0000  0.0000  0.0000  0.0000
  o =  1.1008  v =  0.0000  0.0000  0.0000  1.0000  0.0000  0.0000  0.0000  0.0000  0.0000  0.0000      0.0000  0.0000  0.0000  0.0000  0.0000  0.0000  0.0000  0.0000  0.0000  0.0000
  o =  1.1008  v =  0.0000  0.0000  0.0000  0.0000  1.0000  0.0000  0.0000  0.0000  0.0000  0.0000      0.0000  0.0000  0.0000  0.0000  0.0000  0.0000  0.0000  0.0000  0.0000  0.0000
atom =  12  type =  3  l = 2
 
 onsite density matrix
 
spin component  1
 
  1.1008  0.0000  0.0000  0.0000  0.0000
  0.0000  1.1008  0.0000  0.0000  0.0000
  0.0000  0.0000  1.1008  0.0000  0.0000
  0.0000  0.0000  0.0000  1.1008  0.0000
  0.0000  0.0000  0.0000  0.0000  1.1008
 
spin component  2
 
  0.5927  0.0000  0.0000  0.0000  0.0000
  0.0000  0.5927  0.0000  0.0000  0.0000
  0.0000  0.0000  0.5927  0.0000  0.0000
  0.0000  0.0000  0.0000  0.5927  0.0000
  0.0000  0.0000  0.0000  0.0000  0.5927
 
 occupancies and eigenvectors
 
  o =  0.5927  v =  0.0000  0.0000  0.0000  0.0000  0.0000  1.0000  0.0000  0.0000  0.0000  0.0000      0.0000  0.0000  0.0000  0.0000  0.0000  0.0000  0.0000  0.0000  0.0000  0.0000
  o =  0.5927  v =  0.0000  0.0000  0.0000  0.0000  0.0000  0.0000  1.0000  0.0000  0.0000  0.0000      0.0000  0.0000  0.0000  0.0000  0.0000  0.0000  0.0000  0.0000  0.0000  0.0000
  o =  0.5927  v =  0.0000  0.0000  0.0000  0.0000  0.0000  0.0000  0.0000  1.0000  0.0000  0.0000      0.0000  0.0000  0.0000  0.0000  0.0000  0.0000  0.0000  0.0000  0.0000  0.0000
  o =  0.5927  v =  0.0000  0.0000  0.0000  0.0000  0.0000  0.0000  0.0000  0.0000  1.0000  0.0000      0.0000  0.0000  0.0000  0.0000  0.0000  0.0000  0.0000  0.0000  0.0000  0.0000
  o =  0.5927  v =  0.0000  0.0000  0.0000  0.0000  0.0000  0.0000  0.0000  0.0000  0.0000  1.0000      0.0000  0.0000  0.0000  0.0000  0.0000  0.0000  0.0000  0.0000  0.0000  0.0000
  o =  1.1008  v =  1.0000  0.0000  0.0000  0.0000  0.0000  0.0000  0.0000  0.0000  0.0000  0.0000      0.0000  0.0000  0.0000  0.0000  0.0000  0.0000  0.0000  0.0000  0.0000  0.0000
  o =  1.1008  v =  0.0000  1.0000  0.0000  0.0000  0.0000  0.0000  0.0000  0.0000  0.0000  0.0000      0.0000  0.0000  0.0000  0.0000  0.0000  0.0000  0.0000  0.0000  0.0000  0.0000
  o =  1.1008  v =  0.0000  0.0000  1.0000  0.0000  0.0000  0.0000  0.0000  0.0000  0.0000  0.0000      0.0000  0.0000  0.0000  0.0000  0.0000  0.0000  0.0000  0.0000  0.0000  0.0000
  o =  1.1008  v =  0.0000  0.0000  0.0000  1.0000  0.0000  0.0000  0.0000  0.0000  0.0000  0.0000      0.0000  0.0000  0.0000  0.0000  0.0000  0.0000  0.0000  0.0000  0.0000  0.0000
  o =  1.1008  v =  0.0000  0.0000  0.0000  0.0000  1.0000  0.0000  0.0000  0.0000  0.0000  0.0000      0.0000  0.0000  0.0000  0.0000  0.0000  0.0000  0.0000  0.0000  0.0000  0.0000
atom =  13  type =  4  l = 0
 
 onsite density matrix
 
spin component  1
 
  0.8190
 
spin component  2
 
  0.8190
 
 occupancies and eigenvectors
 
  o =  0.8190  v =  1.0000  0.0000      0.0000  0.0000
  o =  0.8190  v =  0.0000  1.0000      0.0000  0.0000
atom =  14  type =  4  l = 0
 
 onsite density matrix
 
spin component  1
 
  0.8190
 
spin component  2
 
  0.8190
 
 occupancies and eigenvectors
 
  o =  0.8190  v =  1.0000  0.0000      0.0000  0.0000
  o =  0.8190  v =  0.0000  1.0000      0.0000  0.0000
atom =  15  type =  4  l = 0
 
 onsite density matrix
 
spin component  1
 
  0.8190
 
spin component  2
 
  0.8190
 
 occupancies and eigenvectors
 
  o =  0.8190  v =  1.0000  0.0000      0.0000  0.0000
  o =  0.8190  v =  0.0000  1.0000      0.0000  0.0000
atom =  16  type =  4  l = 0
 
 onsite density matrix
 
spin component  1
 
  0.8190
 
spin component  2
 
  0.8190
 
 occupancies and eigenvectors
 
  o =  0.8190  v =  1.0000  0.0000      0.0000  0.0000
  o =  0.8190  v =  0.0000  1.0000      0.0000  0.0000
atom =  17  type =  4  l = 0
 
 onsite density matrix
 
spin component  1
 
  0.8190
 
spin component  2
 
  0.8190
 
 occupancies and eigenvectors
 
  o =  0.8190  v =  1.0000  0.0000      0.0000  0.0000
  o =  0.8190  v =  0.0000  1.0000      0.0000  0.0000
atom =  18  type =  4  l = 0
 
 onsite density matrix
 
spin component  1
 
  0.8190
 
spin component  2
 
  0.8190
 
 occupancies and eigenvectors
 
  o =  0.8190  v =  1.0000  0.0000      0.0000  0.0000
  o =  0.8190  v =  0.0000  1.0000      0.0000  0.0000
atom =  19  type =  4  l = 0
 
 onsite density matrix
 
spin component  1
 
  0.8190
 
spin component  2
 
  0.8190
 
 occupancies and eigenvectors
 
  o =  0.8190  v =  1.0000  0.0000      0.0000  0.0000
  o =  0.8190  v =  0.0000  1.0000      0.0000  0.0000
atom =  20  type =  4  l = 0
 
 onsite density matrix
 
spin component  1
 
  0.8190
 
spin component  2
 
  0.8190
 
 occupancies and eigenvectors
 
  o =  0.8190  v =  1.0000  0.0000      0.0000  0.0000
  o =  0.8190  v =  0.0000  1.0000      0.0000  0.0000
atom =  21  type =  4  l = 0
 
 onsite density matrix
 
spin component  1
 
  0.8190
 
spin component  2
 
  0.8190
 
 occupancies and eigenvectors
 
  o =  0.8190  v =  1.0000  0.0000      0.0000  0.0000
  o =  0.8190  v =  0.0000  1.0000      0.0000  0.0000
atom =  22  type =  4  l = 0
 
 onsite density matrix
 
spin component  1
 
  0.8190
 
spin component  2
 
  0.8190
 
 occupancies and eigenvectors
 
  o =  0.8190  v =  1.0000  0.0000      0.0000  0.0000
  o =  0.8190  v =  0.0000  1.0000      0.0000  0.0000
atom =  23  type =  4  l = 0
 
 onsite density matrix
 
spin component  1
 
  0.8190
 
spin component  2
 
  0.8190
 
 occupancies and eigenvectors
 
  o =  0.8190  v =  1.0000  0.0000      0.0000  0.0000
  o =  0.8190  v =  0.0000  1.0000      0.0000  0.0000
atom =  24  type =  4  l = 0
 
 onsite density matrix
 
spin component  1
 
  0.8190
 
spin component  2
 
  0.8190
 
 occupancies and eigenvectors
 
  o =  0.8190  v =  1.0000  0.0000      0.0000  0.0000
  o =  0.8190  v =  0.0000  1.0000      0.0000  0.0000
atom =  25  type =  4  l = 0
 
 onsite density matrix
 
spin component  1
 
  0.8190
 
spin component  2
 
  0.8190
 
 occupancies and eigenvectors
 
  o =  0.8190  v =  1.0000  0.0000      0.0000  0.0000
  o =  0.8190  v =  0.0000  1.0000      0.0000  0.0000
atom =  26  type =  4  l = 0
 
 onsite density matrix
 
spin component  1
 
  0.8190
 
spin component  2
 
  0.8190
 
 occupancies and eigenvectors
 
  o =  0.8190  v =  1.0000  0.0000      0.0000  0.0000
  o =  0.8190  v =  0.0000  1.0000      0.0000  0.0000
atom =  27  type =  4  l = 0
 
 onsite density matrix
 
spin component  1
 
  0.8190
 
spin component  2
 
  0.8190
 
 occupancies and eigenvectors
 
  o =  0.8190  v =  1.0000  0.0000      0.0000  0.0000
  o =  0.8190  v =  0.0000  1.0000      0.0000  0.0000
atom =  28  type =  4  l = 0
 
 onsite density matrix
 
spin component  1
 
  0.8190
 
spin component  2
 
  0.8190
 
 occupancies and eigenvectors
 
  o =  0.8190  v =  1.0000  0.0000      0.0000  0.0000
  o =  0.8190  v =  0.0000  1.0000      0.0000  0.0000
atom =  29  type =  4  l = 0
 
 onsite density matrix
 
spin component  1
 
  0.8190
 
spin component  2
 
  0.8190
 
 occupancies and eigenvectors
 
  o =  0.8190  v =  1.0000  0.0000      0.0000  0.0000
  o =  0.8190  v =  0.0000  1.0000      0.0000  0.0000
atom =  30  type =  4  l = 0
 
 onsite density matrix
 
spin component  1
 
  0.8190
 
spin component  2
 
  0.8190
 
 occupancies and eigenvectors
 
  o =  0.8190  v =  1.0000  0.0000      0.0000  0.0000
  o =  0.8190  v =  0.0000  1.0000      0.0000  0.0000
     EDDAV:  cpu time    3.3852: real time    3.3986
 BZINTS: Fermi energy: 31.868072;225.000000 electrons
         Band energy:3366.122685;  BLOECHL correction: -0.179837
       DOS:  cpu time    0.0216: real time    0.0235
    --------------------------------------------
      LOOP:  cpu time    3.4976: real time    3.5154

 eigenvalue-minimisations  :  5636
 total energy-change (2. order) : 0.3578375E+04  (-0.7855659E+04)
 number of electron     225.0000000 magnetization      21.0000000
 augmentation part      225.0000000 magnetization      21.0000000

 Free energy of the ion-electron system (eV)
  ---------------------------------------------------
  alpha Z        PSCENC =       977.33432414
  Ewald energy   TEWEN  =    -15244.23643051
  -Hartree energ DENC   =     -3646.40649637
  -exchange      EXHF   =         0.00000000
  -V(xc)+E(xc)   XCENC  =       753.88566194
  PAW double counting   =     14201.63522633   -14291.52419254
  entropy T*S    EENTRO =         0.00000000
  eigenvalues    EBANDS =      3366.12268479
  atomic energy  EATOM  =     17461.56381371
  Solvation  Ediel_sol  =         0.00000000
  ---------------------------------------------------
  free energy    TOTEN  =      3578.37459148 eV

  energy without entropy =     3578.37459148  energy(sigma->0) =     3578.37459148


--------------------------------------------------------------------------------------------------------




--------------------------------------- Iteration      1(   2)  ---------------------------------------


     EDDAV:  cpu time    3.4887: real time    3.5041
 BZINTS: Fermi energy: 16.476361;225.000000 electrons
         Band energy:1032.944685;  BLOECHL correction: -0.019836
       DOS:  cpu time    0.0219: real time    0.0220
    --------------------------------------------
      LOOP:  cpu time    3.5106: real time    3.5261

 eigenvalue-minimisations  :  5856
 total energy-change (2. order) :-0.2333178E+04  (-0.2096361E+04)
 number of electron     225.0000000 magnetization      21.0000000
 augmentation part      225.0000000 magnetization      21.0000000

 Free energy of the ion-electron system (eV)
  ---------------------------------------------------
  alpha Z        PSCENC =       977.33432414
  Ewald energy   TEWEN  =    -15244.23643051
  -Hartree energ DENC   =     -3646.40649637
  -exchange      EXHF   =         0.00000000
  -V(xc)+E(xc)   XCENC  =       753.88566194
  PAW double counting   =     14201.63522633   -14291.52419254
  entropy T*S    EENTRO =         0.00000000
  eigenvalues    EBANDS =      1032.94468489
  atomic energy  EATOM  =     17461.56381371
  Solvation  Ediel_sol  =         0.00000000
  ---------------------------------------------------
  free energy    TOTEN  =      1245.19659158 eV

  energy without entropy =     1245.19659158  energy(sigma->0) =     1245.19659158


--------------------------------------------------------------------------------------------------------




--------------------------------------- Iteration      1(   3)  ---------------------------------------


     EDDAV:  cpu time    3.5069: real time    3.5220
 BZINTS: Fermi energy: 12.157077;225.000000 electrons
         Band energy:  62.077308;  BLOECHL correction: -0.027627
       DOS:  cpu time    0.0211: real time    0.0211
    --------------------------------------------
      LOOP:  cpu time    3.5280: real time    3.5431

 eigenvalue-minimisations  :  5872
 total energy-change (2. order) :-0.9708674E+03  (-0.8689319E+03)
 number of electron     225.0000000 magnetization      21.0000000
 augmentation part      225.0000000 magnetization      21.0000000

 Free energy of the ion-electron system (eV)
  ---------------------------------------------------
  alpha Z        PSCENC =       977.33432414
  Ewald energy   TEWEN  =    -15244.23643051
  -Hartree energ DENC   =     -3646.40649637
  -exchange      EXHF   =         0.00000000
  -V(xc)+E(xc)   XCENC  =       753.88566194
  PAW double counting   =     14201.63522633   -14291.52419254
  entropy T*S    EENTRO =         0.00000000
  eigenvalues    EBANDS =        62.07730802
  atomic energy  EATOM  =     17461.56381371
  Solvation  Ediel_sol  =         0.00000000
  ---------------------------------------------------
  free energy    TOTEN  =       274.32921470 eV

  energy without entropy =      274.32921470  energy(sigma->0) =      274.32921470


--------------------------------------------------------------------------------------------------------




--------------------------------------- Iteration      1(   4)  ---------------------------------------


     EDDAV:  cpu time    4.6624: real time    4.6799
 BZINTS: Fermi energy: 11.466835;225.000000 electrons
         Band energy:-369.951219;  BLOECHL correction: -0.003828
       DOS:  cpu time    0.0207: real time    0.0207
    --------------------------------------------
      LOOP:  cpu time    4.6831: real time    4.7007

 eigenvalue-minimisations  :  8450
 total energy-change (2. order) :-0.4320285E+03  (-0.4066980E+03)
 number of electron     225.0000000 magnetization      21.0000000
 augmentation part      225.0000000 magnetization      21.0000000

 Free energy of the ion-electron system (eV)
  ---------------------------------------------------
  alpha Z        PSCENC =       977.33432414
  Ewald energy   TEWEN  =    -15244.23643051
  -Hartree energ DENC   =     -3646.40649637
  -exchange      EXHF   =         0.00000000
  -V(xc)+E(xc)   XCENC  =       753.88566194
  PAW double counting   =     14201.63522633   -14291.52419254
  entropy T*S    EENTRO =         0.00000000
  eigenvalues    EBANDS =      -369.95121923
  atomic energy  EATOM  =     17461.56381371
  Solvation  Ediel_sol  =         0.00000000
  ---------------------------------------------------
  free energy    TOTEN  =      -157.69931255 eV

  energy without entropy =     -157.69931255  energy(sigma->0) =     -157.69931255


--------------------------------------------------------------------------------------------------------




--------------------------------------- Iteration      1(   5)  ---------------------------------------


     EDDAV:  cpu time    5.2400: real time    5.2604
 BZINTS: Fermi energy: 10.977678;225.000000 electrons
         Band energy:-461.667432;  BLOECHL correction: -0.071491
       DOS:  cpu time    0.0215: real time    0.0215
    CHARGE:  cpu time    0.1531: real time    0.1536
    MIXING:  cpu time    0.0035: real time    0.0039
    --------------------------------------------
      LOOP:  cpu time    5.4181: real time    5.4394

 eigenvalue-minimisations  :  9542
 total energy-change (2. order) :-0.9171621E+02  (-0.8806553E+02)
 number of electron     225.0000050 magnetization      20.0537506
 augmentation part       28.5558135 magnetization      15.0837524

 Broyden mixing:
  rms(total) = 0.76291E+01    rms(broyden)= 0.76287E+01
  rms(prec ) = 0.80647E+01
  weight for this iteration     100.00

 Free energy of the ion-electron system (eV)
  ---------------------------------------------------
  alpha Z        PSCENC =       977.33432414
  Ewald energy   TEWEN  =    -15244.23643051
  -Hartree energ DENC   =     -3646.40649637
  -exchange      EXHF   =         0.00000000
  -V(xc)+E(xc)   XCENC  =       753.88566194
  PAW double counting   =     14201.63522633   -14291.52419254
  entropy T*S    EENTRO =         0.00000000
  eigenvalues    EBANDS =      -461.66743167
  atomic energy  EATOM  =     17461.56381371
  Solvation  Ediel_sol  =         0.00000000
  ---------------------------------------------------
  free energy    TOTEN  =      -249.41552498 eV

  energy without entropy =     -249.41552498  energy(sigma->0) =     -249.41552498


--------------------------------------------------------------------------------------------------------




--------------------------------------- Iteration      1(   6)  ---------------------------------------


    POTLOK:  cpu time    0.0740: real time    0.0756
    SETDIJ:  cpu time    0.0143: real time    0.0144
atom =   1  type =  1  l = 0
 
 onsite density matrix
 
spin component  1
 
  1.0562
 
spin component  2
 
  1.0558
 
 occupancies and eigenvectors
 
  o =  1.0558  v =  0.0000  1.0000      0.0000  0.0000
  o =  1.0562  v =  1.0000  0.0000      0.0000  0.0000
atom =   2  type =  1  l = 0
 
 onsite density matrix
 
spin component  1
 
  1.0569
 
spin component  2
 
  1.0569
 
 occupancies and eigenvectors
 
  o =  1.0569  v =  1.0000  0.0000      0.0000  0.0000
  o =  1.0569  v =  0.0000  1.0000      0.0000  0.0000
atom =   3  type =  1  l = 0
 
 onsite density matrix
 
spin component  1
 
  1.0563
 
spin component  2
 
  1.0566
 
 occupancies and eigenvectors
 
  o =  1.0563  v =  1.0000  0.0000      0.0000  0.0000
  o =  1.0566  v =  0.0000  1.0000      0.0000  0.0000
atom =   4  type =  1  l = 0
 
 onsite density matrix
 
spin component  1
 
  1.0562
 
spin component  2
 
  1.0563
 
 occupancies and eigenvectors
 
  o =  1.0562  v =  1.0000  0.0000      0.0000  0.0000
  o =  1.0563  v =  0.0000  1.0000      0.0000  0.0000
atom =   5  type =  1  l = 0
 
 onsite density matrix
 
spin component  1
 
  1.0563
 
spin component  2
 
  1.0566
 
 occupancies and eigenvectors
 
  o =  1.0563  v =  1.0000  0.0000      0.0000  0.0000
  o =  1.0566  v =  0.0000  1.0000      0.0000  0.0000
atom =   6  type =  1  l = 0
 
 onsite density matrix
 
spin component  1
 
  1.0569
 
spin component  2
 
  1.0569
 
 occupancies and eigenvectors
 
  o =  1.0569  v =  1.0000  0.0000      0.0000  0.0000
  o =  1.0569  v =  0.0000  1.0000      0.0000  0.0000
atom =   7  type =  2  l = 2
 
 onsite density matrix
 
spin component  1
 
  0.9095 -0.0000  0.0000  0.0013 -0.0000
 -0.0000  0.9315 -0.0020  0.0000  0.0034
  0.0000 -0.0020  0.3668 -0.0000 -0.0008
  0.0013  0.0000 -0.0000  0.9095  0.0000
 -0.0000  0.0034 -0.0008  0.0000  0.3678
 
spin component  2
 
  0.0529  0.0000  0.0000 -0.0003  0.0000
  0.0000  0.0393  0.0015 -0.0000 -0.0025
  0.0000  0.0015  0.4314 -0.0000 -0.0008
 -0.0003 -0.0000 -0.0000  0.0529 -0.0000
  0.0000 -0.0025 -0.0008 -0.0000  0.4324
 
 occupancies and eigenvectors
 
  o =  0.0393  v =  0.0000  0.0000  0.0000  0.0000  0.0000  0.0000 -1.0000  0.0037  0.0000 -0.0064      0.0000  0.0000  0.0000  0.0000  0.0000  0.0000  0.0000  0.0000  0.0000  0.0000
  o =  0.0527  v =  0.0000  0.0000  0.0000  0.0000  0.0000 -0.7071 -0.0000  0.0000 -0.7071 -0.0000      0.0000  0.0000  0.0000  0.0000  0.0000  0.0000  0.0000  0.0000  0.0000  0.0000
  o =  0.0532  v =  0.0000  0.0000  0.0000  0.0000  0.0000 -0.7071  0.0000 -0.0000  0.7071  0.0000      0.0000  0.0000  0.0000  0.0000  0.0000  0.0000  0.0000  0.0000  0.0000  0.0000
  o =  0.3664  v = -0.0000  0.0000  0.8660  0.0000  0.5000  0.0000  0.0000  0.0000  0.0000  0.0000      0.0000  0.0000  0.0000  0.0000  0.0000  0.0000  0.0000  0.0000  0.0000  0.0000
  o =  0.3682  v =  0.0000 -0.0070 -0.5000 -0.0000  0.8660  0.0000  0.0000  0.0000  0.0000  0.0000      0.0000  0.0000  0.0000  0.0000  0.0000  0.0000  0.0000  0.0000  0.0000  0.0000
  o =  0.4310  v =  0.0000  0.0000  0.0000  0.0000  0.0000  0.0000 -0.0000 -0.8660  0.0000 -0.5000      0.0000  0.0000  0.0000  0.0000  0.0000  0.0000  0.0000  0.0000  0.0000  0.0000
  o =  0.4328  v =  0.0000  0.0000  0.0000  0.0000  0.0000  0.0000 -0.0074 -0.5000 -0.0000  0.8660      0.0000  0.0000  0.0000  0.0000  0.0000  0.0000  0.0000  0.0000  0.0000  0.0000
  o =  0.9082  v =  0.7071  0.0000 -0.0000 -0.7071  0.0000  0.0000  0.0000  0.0000  0.0000  0.0000      0.0000  0.0000  0.0000  0.0000  0.0000  0.0000  0.0000  0.0000  0.0000  0.0000
  o =  0.9108  v = -0.7071  0.0000 -0.0000 -0.7071  0.0000  0.0000  0.0000  0.0000  0.0000  0.0000      0.0000  0.0000  0.0000  0.0000  0.0000  0.0000  0.0000  0.0000  0.0000  0.0000
  o =  0.9315  v = -0.0000  1.0000 -0.0035  0.0000  0.0061  0.0000  0.0000  0.0000  0.0000  0.0000      0.0000  0.0000  0.0000  0.0000  0.0000  0.0000  0.0000  0.0000  0.0000  0.0000
atom =   8  type =  2  l = 2
 
 onsite density matrix
 
spin component  1
 
  0.9479  0.0000 -0.0000  0.0017  0.0000
  0.0000  0.9378 -0.0033 -0.0000  0.0056
 -0.0000 -0.0033  0.3576 -0.0000 -0.0207
  0.0017 -0.0000 -0.0000  0.9479  0.0000
  0.0000  0.0056 -0.0207  0.0000  0.3815
 
spin component  2
 
  0.0340 -0.0000  0.0000 -0.0003 -0.0000
 -0.0000  0.0422  0.0019  0.0000 -0.0033
  0.0000  0.0019  0.4440  0.0000  0.0132
 -0.0003  0.0000  0.0000  0.0340 -0.0000
 -0.0000 -0.0033  0.0132 -0.0000  0.4288
 
 occupancies and eigenvectors
 
  o =  0.0337  v =  0.0000  0.0000  0.0000  0.0000  0.0000 -0.7071 -0.0000  0.0000 -0.7071 -0.0000      0.0000  0.0000  0.0000  0.0000  0.0000  0.0000  0.0000  0.0000  0.0000  0.0000
  o =  0.0343  v =  0.0000  0.0000  0.0000  0.0000  0.0000  0.7071 -0.0000  0.0000 -0.7071 -0.0000      0.0000  0.0000  0.0000  0.0000  0.0000  0.0000  0.0000  0.0000  0.0000  0.0000
  o =  0.0421  v =  0.0000  0.0000  0.0000  0.0000  0.0000  0.0000 -0.9999  0.0050  0.0000 -0.0087      0.0000  0.0000  0.0000  0.0000  0.0000  0.0000  0.0000  0.0000  0.0000  0.0000
  o =  0.3457  v = -0.0000  0.0000 -0.8660  0.0000 -0.5000  0.0000  0.0000  0.0000  0.0000  0.0000      0.0000  0.0000  0.0000  0.0000  0.0000  0.0000  0.0000  0.0000  0.0000  0.0000
  o =  0.3934  v = -0.0000 -0.0120 -0.5000 -0.0000  0.8660  0.0000  0.0000  0.0000  0.0000  0.0000      0.0000  0.0000  0.0000  0.0000  0.0000  0.0000  0.0000  0.0000  0.0000  0.0000
[...]
  0.000   0.000  -0.000   0.000   0.000  -0.000   0.000  -0.000   0.000   0.000   0.000   0.000   0.000  -0.000   0.000  -0.000
 -0.000   0.000   0.000   0.000   0.000   0.000   0.000  -0.000   0.000   0.000   0.000   0.000   0.000   0.000   0.000   0.000
  0.000  -0.000  -0.000  -0.000   0.000   0.000  -0.000   0.000   0.000   0.000   0.000  -0.000  -0.000   0.000   0.000   0.000
  0.000   0.000  -0.000   0.000  -0.000  -0.000   0.000   0.000   0.000   0.000   0.000   0.000   0.000   0.000   0.000   0.000
  0.000  -0.000   0.000   0.000  -0.000   0.000  -0.000   0.000   0.000  -0.000   0.000  -0.000  -0.000   0.000   0.000  -0.000
  0.000   0.000   0.000  -0.000   0.000  -0.000  -0.000  -0.000   0.000   0.000   0.000  -0.000   0.000   0.000   0.000   0.000
  0.000   0.000  -0.000  -0.000  -0.000   0.000  -0.000  -0.000   0.000   0.000  -0.000   0.000   0.000  -0.000   0.000   0.000
  0.000   0.000  -0.000  -0.000   0.000   0.000  -0.000   0.000   0.000   0.000  -0.000   0.000   0.000  -0.000   0.000   0.000
  0.000   0.000   0.000   0.000  -0.000   0.000  -0.000   0.000  -0.000   0.000   0.000   0.000  -0.000   0.000   0.000   0.000
  0.000   0.000   0.000   0.000   0.000  -0.000   0.000   0.000   0.000   0.000   0.000   0.000   0.000   0.000   0.000   0.000
  0.000   0.000   0.000   0.000   0.000   0.000   0.000  -0.000   0.000  -0.000   0.000  -0.000   0.000  -0.000   0.000   0.000


------------------------ aborting loop because EDIFF is reached ----------------------------------------


 


 total charge     
 
# of ion       s       p       d       f       tot
--------------------------------------------------
    1        1.999   5.697   0.479   0.185   8.360
    2        2.002   5.696   0.504   0.193   8.395
    3        2.002   5.698   0.511   0.198   8.410
    4        2.000   5.702   0.497   0.195   8.394
    5        2.002   5.698   0.511   0.198   8.410
    6        2.002   5.696   0.504   0.193   8.395
    7        0.317   0.479   4.866   0.000   5.661
    8        0.338   0.519   4.866   0.000   5.722
    9        0.338   0.519   4.866   0.000   5.722
   10        0.405   0.586   8.315   0.000   9.307
   11        0.430   0.654   8.329   0.000   9.413
   12        0.405   0.586   8.315   0.000   9.307
   13        1.563   3.455   0.000   0.000   5.018
   14        1.563   3.455   0.000   0.000   5.018
   15        1.563   3.449   0.000   0.000   5.012
   16        1.560   3.444   0.000   0.000   5.004
   17        1.560   3.444   0.000   0.000   5.004
   18        1.563   3.449   0.000   0.000   5.012
   19        1.563   3.449   0.000   0.000   5.012
   20        1.563   3.455   0.000   0.000   5.018
   21        1.563   3.455   0.000   0.000   5.018
   22        1.563   3.449   0.000   0.000   5.012
   23        1.560   3.444   0.000   0.000   5.004
   24        1.560   3.444   0.000   0.000   5.004
   25        1.565   3.453   0.000   0.000   5.018
   26        1.564   3.447   0.000   0.000   5.011
   27        1.565   3.453   0.000   0.000   5.018
   28        1.558   3.453   0.000   0.000   5.010
   29        1.562   3.459   0.000   0.000   5.021
   30        1.558   3.453   0.000   0.000   5.010
--------------------------------------------------
tot         42.357  99.636  42.564   1.161 185.718

 


 magnetization (x)
 
# of ion       s       p       d       f       tot
--------------------------------------------------
    1        0.000  -0.001   0.003   0.001   0.004
    2        0.000  -0.000   0.005   0.003   0.008
    3        0.001   0.001   0.011   0.005   0.018
    4        0.001   0.001   0.014   0.007   0.023
    5        0.001   0.001   0.011   0.005   0.018
    6        0.000  -0.000   0.005   0.003   0.008
    7        0.020   0.017   3.629   0.000   3.667
    8        0.024   0.022   3.459   0.000   3.505
    9        0.024   0.022   3.459   0.000   3.505
   10        0.017   0.008   1.595   0.000   1.620
   11        0.019   0.023   1.427   0.000   1.469
   12        0.017   0.008   1.595   0.000   1.620
   13        0.003  -0.044   0.000   0.000  -0.040
   14        0.003  -0.044   0.000   0.000  -0.040
   15        0.005  -0.038   0.000   0.000  -0.033
   16        0.007  -0.042   0.000   0.000  -0.035
   17        0.007  -0.042   0.000   0.000  -0.035
   18        0.005  -0.038   0.000   0.000  -0.033
   19        0.005  -0.038   0.000   0.000  -0.033
   20        0.003  -0.044   0.000   0.000  -0.040
   21        0.003  -0.044   0.000   0.000  -0.040
   22        0.005  -0.038   0.000   0.000  -0.033
   23        0.007  -0.042   0.000   0.000  -0.035
   24        0.007  -0.042   0.000   0.000  -0.035
   25        0.004  -0.060   0.000   0.000  -0.056
   26        0.004  -0.058   0.000   0.000  -0.053
   27        0.004  -0.060   0.000   0.000  -0.056
   28        0.006  -0.026   0.000   0.000  -0.020
   29        0.007  -0.037   0.000   0.000  -0.030
   30        0.006  -0.026   0.000   0.000  -0.020
--------------------------------------------------
tot          0.216  -0.658  15.213   0.025  14.797

 
    CHARGE:  cpu time    0.1502: real time    0.1506
    FORLOC:  cpu time    0.0111: real time    0.0112
    FORNL :  cpu time    0.9265: real time    0.9353
    STRESS:  cpu time    2.7355: real time    2.7440
    FORCOR:  cpu time    0.0836: real time    0.0841
    FORHAR:  cpu time    0.0185: real time    0.0185
    MIXING:  cpu time    0.0048: real time    0.0048
    OFIELD:  cpu time    0.0001: real time    0.0001

  FORCE on cell =-STRESS in cart. coord.  units (eV):
  Direction    XX          YY          ZZ          XY          YZ          ZX
  --------------------------------------------------------------------------------------
  Alpha Z   977.33432   977.33432   977.33432
  Ewald   -4833.71955 -5205.28707 -5205.28707     0.00000   195.73462     0.00000
  Hartree  1453.00929  1131.95599  1131.95599     0.00000   206.29409    -0.00000
  E(xc)   -1046.16426 -1046.37725 -1046.37725     0.00000    -0.06886    -0.00000
  Local   -1303.25787  -610.70166  -610.70166    -0.00000  -402.12418     0.00000
  n-local   416.24260   416.09412   416.09861    -0.46667     1.08602    -0.46482
  augment   488.72932   488.53928   488.53928     0.00000    -0.05953    -0.00000
  Kinetic  3847.56704  3847.14344  3847.13699     0.80955    -1.00280     0.80759
  Fock        0.00000     0.00000     0.00000     0.00000     0.00000     0.00000
  -------------------------------------------------------------------------------------
  Total      -0.25910    -1.29980    -1.29980     0.00000    -0.14072    -0.00000
  in kB      -1.17485    -5.89380    -5.89380     0.00000    -0.63806    -0.00000
  external pressure =       -4.32 kB  Pullay stress =        0.00 kB


 VOLUME and BASIS-vectors are now :
 -----------------------------------------------------------------------------
  energy-cutoff  :      520.00
  volume of cell :      353.34
      direct lattice vectors                 reciprocal lattice vectors
     3.878766036  0.000000000  0.000000000     0.257813952  0.000000000  0.000000000
     0.000000000  3.888876790  3.888876790     0.000000000  0.128571829  0.128571829
     0.000000000-11.712370129 11.712370129     0.000000000 -0.042689908  0.042689908

  length of vectors
     3.878766036  5.499702299 16.563792684     0.257813952  0.181828024  0.060372646


 FORCES acting on ions
    electron-ion (+dipol)            ewald-force                    non-local-force                 convergence-correction
 -----------------------------------------------------------------------------------------------
   -.967E-14 -.685E-04 0.685E-04   -.764E-14 0.313E-03 -.313E-03   0.000E+00 0.108E-18 -.108E-18   0.218E-13 -.228E-05 0.228E-05
   -.139E-13 0.190E+03 -.190E+03   -.275E-13 -.189E+03 0.189E+03   0.000E+00 -.139E+01 0.139E+01   0.229E-13 0.146E+00 -.146E+00
   -.124E-13 0.188E+03 -.188E+03   0.643E-14 -.186E+03 0.186E+03   0.000E+00 -.139E+01 0.139E+01   0.234E-13 0.161E+00 -.161E+00
   -.242E-14 -.597E-04 0.597E-04   0.174E-13 0.333E-03 -.333E-03   0.000E+00 -.325E-18 -.325E-18   0.167E-13 -.962E-05 0.962E-05
   -.469E-14 -.188E+03 0.188E+03   -.370E-14 0.186E+03 -.186E+03   0.000E+00 0.139E+01 -.139E+01   0.147E-13 -.161E+00 0.161E+00
   0.413E-14 -.190E+03 0.190E+03   0.412E-14 0.189E+03 -.189E+03   0.000E+00 0.139E+01 -.139E+01   0.147E-13 -.146E+00 0.146E+00
   0.449E-13 -.265E-04 0.265E-04   -.126E-13 0.265E-03 -.265E-03   0.000E+00 -.508E-20 0.508E-20   -.592E-14 -.646E-05 0.646E-05
   0.622E-13 -.715E+02 0.715E+02   0.444E-14 0.710E+02 -.710E+02   0.000E+00 0.571E+00 -.571E+00   0.398E-14 -.993E-01 0.993E-01
   0.578E-13 0.715E+02 -.715E+02   -.103E-13 -.710E+02 0.710E+02   0.000E+00 -.571E+00 0.571E+00   -.427E-15 0.993E-01 -.993E-01
   0.277E-12 0.114E+03 -.114E+03   0.171E-13 -.113E+03 0.113E+03   0.000E+00 -.136E+01 0.136E+01   0.375E-13 0.140E+00 -.140E+00
   0.320E-12 -.275E-04 0.275E-04   0.823E-15 0.388E-03 -.388E-03   0.000E+00 0.169E-20 0.169E-20   0.494E-13 -.223E-05 0.223E-05
   0.288E-12 -.114E+03 0.114E+03   0.162E-13 0.113E+03 -.113E+03   0.000E+00 0.136E+01 -.136E+01   0.382E-13 -.140E+00 0.140E+00
   0.109E-12 -.225E+02 0.473E+02   -.136E-13 0.217E+02 -.479E+02   0.000E+00 0.793E+00 0.421E+00   0.206E-13 -.516E-01 0.101E+00
   0.118E-12 0.225E+02 -.473E+02   0.250E-13 -.217E+02 0.479E+02   0.000E+00 -.793E+00 -.421E+00   0.141E-13 0.515E-01 -.101E+00
   0.108E-12 0.563E+02 -.126E+03   0.518E-14 -.545E+02 0.121E+03   -.867E-18 -.192E+01 0.507E+01   0.111E-13 0.110E+00 -.114E+00
   0.115E-12 0.333E+02 -.575E+02   0.108E-13 -.323E+02 0.588E+02   0.108E-18 -.109E+01 -.127E+01   0.224E-13 0.508E-01 -.570E-01
   0.126E-12 -.333E+02 0.575E+02   -.276E-13 0.323E+02 -.588E+02   -.542E-19 0.109E+01 0.127E+01   0.305E-13 -.508E-01 0.570E-01
   0.104E-12 -.563E+02 0.126E+03   -.226E-13 0.545E+02 -.121E+03   -.867E-18 0.192E+01 -.507E+01   0.337E-13 -.110E+00 0.114E+00
   0.115E-12 -.126E+03 0.563E+02   0.168E-13 0.121E+03 -.545E+02   0.867E-18 0.507E+01 -.192E+01   0.771E-14 -.114E+00 0.110E+00
   0.112E-12 -.473E+02 0.225E+02   -.592E-15 0.479E+02 -.217E+02   0.000E+00 -.421E+00 -.793E+00   0.104E-13 -.101E+00 0.516E-01
   0.125E-12 0.473E+02 -.225E+02   -.249E-13 -.479E+02 0.217E+02   0.000E+00 0.421E+00 0.793E+00   0.501E-14 0.101E+00 -.515E-01
   0.121E-12 0.126E+03 -.563E+02   -.985E-14 -.121E+03 0.545E+02   0.867E-18 -.507E+01 0.192E+01   0.354E-14 0.114E+00 -.110E+00
   0.131E-12 0.575E+02 -.333E+02   0.159E-13 -.588E+02 0.323E+02   -.108E-18 0.127E+01 0.109E+01   0.296E-14 0.570E-01 -.508E-01
   0.128E-12 -.575E+02 0.333E+02   -.106E-13 0.588E+02 -.323E+02   0.542E-19 -.127E+01 -.109E+01   0.892E-14 -.570E-01 0.508E-01
   0.496E-14 -.562E+02 0.562E+02   0.127E-13 0.559E+02 -.559E+02   0.000E+00 0.361E+00 -.361E+00   0.173E-13 -.892E-01 0.892E-01
   0.306E-14 -.657E-05 0.657E-05   0.282E-13 0.171E-03 -.171E-03   0.000E+00 0.678E-20 -.136E-19   0.231E-13 -.577E-05 0.577E-05
   0.167E-14 0.562E+02 -.562E+02   0.285E-14 -.559E+02 0.559E+02   0.000E+00 -.361E+00 0.361E+00   0.161E-13 0.892E-01 -.892E-01
   -.448E-14 0.630E+02 -.630E+02   -.212E-13 -.620E+02 0.620E+02   0.000E+00 -.106E+01 0.106E+01   0.626E-14 0.941E-01 -.941E-01
   -.565E-14 0.849E-05 -.849E-05   0.183E-13 0.203E-03 -.203E-03   0.000E+00 0.000E+00 -.271E-19   -.188E-14 -.130E-05 0.130E-05
   -.237E-14 -.630E+02 0.630E+02   0.392E-14 0.620E+02 -.620E+02   0.000E+00 0.106E+01 -.106E+01   0.675E-14 -.941E-01 0.941E-01
 -----------------------------------------------------------------------------------------------
   0.242E-11 -.106E-01 0.106E-01   0.135E-13 -.178E-12 0.995E-13   0.000E+00 0.466E-14 -.222E-14   0.476E-12 -.125E-04 0.125E-04
 
 
 POSITION                                       TOTAL-FORCE (eV/Angst)
 -----------------------------------------------------------------------------------
      0.00000     -0.00762      3.89650         0.000000     -0.000000     -0.000000
      0.00000     -3.75549      3.75549         0.000000     -0.017527      0.017527
      0.00000     -3.77176      7.66063         0.000000     -0.006604      0.006604
      0.00000     -7.80825      7.80825         0.000000     -0.000000     -0.000000
      0.00000     -7.95586     11.84474         0.000000      0.006604     -0.006604
      0.00000     -0.14863      0.14863         0.000000      0.017527     -0.017527
      1.93938     -5.86381      9.75269         0.000000     -0.000000     -0.000000
      1.93938     -9.76567      9.76567         0.000000     -0.030265      0.030265
      1.93938     -5.85082      5.85082         0.000000      0.030265     -0.030265
      1.93938     -1.95033      5.83921         0.000000     -0.028800      0.028800
      1.93938     -1.95206      1.95206         0.000000     -0.000000     -0.000000
      1.93938      1.93508      1.95379         0.000000      0.028800     -0.028800
      1.93938     -5.83877     11.70885         0.000000      0.007693     -0.065535
      1.93938     -5.88884      7.79652         0.000000     -0.007693      0.065535
      1.93938     -2.00511      7.83841         0.000000     -0.027350      0.038015
      1.93938     -1.96630      3.88594         0.000000     -0.022286     -0.079422
      1.93938      1.95105      3.90706         0.000000      0.022286      0.079422
      1.93938     -9.72251     11.66696         0.000000      0.027350     -0.038015
      1.93938     -7.77808     13.61139         0.000000      0.038015     -0.027350
      1.93938     -7.81997      9.72765         0.000000      0.065535     -0.007693
      1.93938     -3.90765      9.77772         0.000000     -0.065535      0.007693
      1.93938     -3.94954      5.89398         0.000000     -0.038015      0.027350
      1.93938      0.00294      5.85518         0.000000      0.079422      0.022286
      1.93938     -0.01819      1.93782         0.000000     -0.079422     -0.022286
      0.00000     -9.72578      9.72578         0.000000      0.006771     -0.006771
      0.00000     -5.86381      9.75269         0.000000     -0.000000     -0.000000
      0.00000     -5.89072      5.89072         0.000000     -0.006771      0.006771
      0.00000     -1.97686      5.86574         0.000000      0.007948     -0.007948
      0.00000     -1.95206      1.95206         0.000000     -0.000000     -0.000000
      0.00000     -9.75076     13.63963         0.000000     -0.007948      0.007948
 -----------------------------------------------------------------------------------
    total drift:                                0.000000     -0.010640      0.010640


--------------------------------------------------------------------------------------------------------



  FREE ENERGIE OF THE ION-ELECTRON SYSTEM (eV)
  ---------------------------------------------------
  free  energy   TOTEN  =      -220.04700911 eV

  energy  without entropy=     -220.04700911  energy(sigma->0) =     -220.04700911
 


--------------------------------------------------------------------------------------------------------


    POTLOK:  cpu time    0.0866: real time    0.0868


--------------------------------------------------------------------------------------------------------


     LOOP+:  cpu time   82.6213: real time   82.9653
    4ORBIT:  cpu time    0.0000: real time    0.0000
 


 total charge     
 
# of ion       s       p       d       f       tot
--------------------------------------------------
    1        1.999   5.697   0.479   0.185   8.360
    2        2.002   5.696   0.504   0.193   8.395
    3        2.002   5.698   0.511   0.198   8.410
    4        2.000   5.702   0.497   0.195   8.394
    5        2.002   5.698   0.511   0.198   8.410
    6        2.002   5.696   0.504   0.193   8.395
    7        0.317   0.479   4.866   0.000   5.661
    8        0.338   0.519   4.866   0.000   5.722
    9        0.338   0.519   4.866   0.000   5.722
   10        0.405   0.586   8.315   0.000   9.307
   11        0.430   0.654   8.329   0.000   9.413
   12        0.405   0.586   8.315   0.000   9.307
   13        1.563   3.455   0.000   0.000   5.018
   14        1.563   3.455   0.000   0.000   5.018
   15        1.563   3.449   0.000   0.000   5.012
   16        1.560   3.444   0.000   0.000   5.004
   17        1.560   3.444   0.000   0.000   5.004
   18        1.563   3.449   0.000   0.000   5.012
   19        1.563   3.449   0.000   0.000   5.012
   20        1.563   3.455   0.000   0.000   5.018
   21        1.563   3.455   0.000   0.000   5.018
   22        1.563   3.449   0.000   0.000   5.012
   23        1.560   3.444   0.000   0.000   5.004
   24        1.560   3.444   0.000   0.000   5.004
   25        1.565   3.453   0.000   0.000   5.018
   26        1.564   3.447   0.000   0.000   5.011
   27        1.565   3.453   0.000   0.000   5.018
   28        1.558   3.453   0.000   0.000   5.010
   29        1.562   3.459   0.000   0.000   5.021
   30        1.558   3.453   0.000   0.000   5.010
--------------------------------------------------
tot         42.357  99.636  42.564   1.161 185.718

 


 magnetization (x)
 
# of ion       s       p       d       f       tot
--------------------------------------------------
    1        0.000  -0.001   0.003   0.001   0.004
    2        0.000  -0.000   0.005   0.003   0.008
    3        0.001   0.001   0.011   0.005   0.018
    4        0.001   0.001   0.014   0.007   0.023
    5        0.001   0.001   0.011   0.005   0.018
    6        0.000  -0.000   0.005   0.003   0.008
    7        0.020   0.017   3.629   0.000   3.667
    8        0.024   0.022   3.459   0.000   3.505
    9        0.024   0.022   3.459   0.000   3.505
   10        0.017   0.008   1.595   0.000   1.620
   11        0.019   0.023   1.427   0.000   1.469
   12        0.017   0.008   1.595   0.000   1.620
   13        0.003  -0.044   0.000   0.000  -0.040
   14        0.003  -0.044   0.000   0.000  -0.040
   15        0.005  -0.038   0.000   0.000  -0.033
   16        0.007  -0.042   0.000   0.000  -0.035
   17        0.007  -0.042   0.000   0.000  -0.035
   18        0.005  -0.038   0.000   0.000  -0.033
   19        0.005  -0.038   0.000   0.000  -0.033
   20        0.003  -0.044   0.000   0.000  -0.040
   21        0.003  -0.044   0.000   0.000  -0.040
   22        0.005  -0.038   0.000   0.000  -0.033
   23        0.007  -0.042   0.000   0.000  -0.035
   24        0.007  -0.042   0.000   0.000  -0.035
   25        0.004  -0.060   0.000   0.000  -0.056
   26        0.004  -0.058   0.000   0.000  -0.053
   27        0.004  -0.060   0.000   0.000  -0.056
   28        0.006  -0.026   0.000   0.000  -0.020
   29        0.007  -0.037   0.000   0.000  -0.030
   30        0.006  -0.026   0.000   0.000  -0.020
--------------------------------------------------
tot          0.216  -0.658  15.213   0.025  14.797

 
 BZINTS: Fermi energy:  7.606729;225.000000 electrons
         Band energy:-344.060371;  BLOECHL correction: -0.127592

 total amount of memory used by VASP MPI-rank0    68396. kBytes
=======================================================================

   base      :      30000. kBytes
   nonlr-proj:       6730. kBytes
   fftplans  :       2638. kBytes
   grid      :       7416. kBytes
   one-center:        294. kBytes
   wavefun   :      21318. kBytes
 
  
  
 General timing and accounting informations for this job:
 ========================================================
  
                  Total CPU time used (sec):       90.610
                            User time (sec):       87.915
                          System time (sec):        2.696
                         Elapsed time (sec):       91.195
  
                   Maximum memory used (kb):      108048.
                   Average memory used (kb):           0.
  
                          Minor page faults:        35989
                          Major page faults:            0
                 Voluntary context switches:         1031
