 vasp.5.4.4.18Apr17-6-g9f103f2a35 (build Oct 03 2018 13:58:34) complex          
  
 executed on             LinuxIFC date 2019.06.04  01:28:03
 running on   40 total cores
 distrk:  each k-point on   20 cores,    2 groups
 distr:  one band on NCORES_PER_BAND=  10 cores,    2 groups


--------------------------------------------------------------------------------------------------------


 INCAR:
 POTCAR:    PAW_PBE La 06Sep2000                  
 POTCAR:    PAW_PBE Mn 06Sep2000                  
 POTCAR:    PAW_PBE Ni 02Aug2007                  
 POTCAR:    PAW_PBE O 08Apr2002                   

 ----------------------------------------------------------------------------- 
|                                                                             |
|           W    W    AA    RRRRR   N    N  II  N    N   GGGG   !!!           |
|           W    W   A  A   R    R  NN   N  II  NN   N  G    G  !!!           |
|           W    W  A    A  R    R  N N  N  II  N N  N  G       !!!           |
|           W WW W  AAAAAA  RRRRR   N  N N  II  N  N N  G  GGG   !            |
|           WW  WW  A    A  R   R   N   NN  II  N   NN  G    G                |
|           W    W  A    A  R    R  N    N  II  N    N   GGGG   !!!           |
|                                                                             |
|      You have enabled k-point parallelism (KPAR>1).                         |
|      This developmental code was originally  written by Paul Kent at ORNL,  |
|      and carefully double checked in Vienna.                                |
|      GW as well as linear response parallelism added by Martijn Marsman     |
|      and Georg Kresse.                                                      |
|      Carefully verify results versus KPAR=1.                                |
|      Report problems to Paul Kent and Vienna.                               |
|                                                                             |
 ----------------------------------------------------------------------------- 

 POTCAR:    PAW_PBE La 06Sep2000                  
   VRHFIN =La : [core=Kr4d]                                                     
   LEXCH  = PE                                                                  
   EATOM  =   865.9763 eV,   63.6475 Ry                                         
                                                                                
   TITEL  = PAW_PBE La 06Sep2000                                                
   LULTRA =        F    use ultrasoft PP ?                                      
   IUNSCR =        1    unscreen: 0-lin 1-nonlin 2-no                           
   RPACOR =    2.300    partial core radius                                     
   POMASS =  138.900; ZVAL   =   11.000    mass and valenz                      
   RCORE  =    2.800    outmost cutoff radius                                   
   RWIGS  =    2.900; RWIGS  =    1.535    wigner-seitz radius (au A)           
   ENMAX  =  219.292; ENMIN  =  164.469 eV                                      
   RCLOC  =    1.601    cutoff for local pot                                    
   LCOR   =        T    correct aug charges                                     
   LPAW   =        T    paw PP                                                  
   EAUG   =  583.575                                                            
   DEXC   =    0.000                                                            
   RMAX   =    2.853    core radius for proj-oper                               
   RAUG   =    1.300    factor for augmentation sphere                          
   RDEP   =    2.802    radius for radial grids                                 
   RDEPT  =    2.156    core radius for aug-charge                              
                                                                                
   Atomic configuration                                                         
   14 entries                                                                   
     n  l   j            E        occ.                                          
     1  0  0.50    -38741.0879   2.0000                                         
     2  0  0.50     -6166.6801   2.0000                                         
     2  1  1.50     -5526.1593   6.0000                                         
     3  0  0.50     -1319.0200   2.0000                                         
     3  1  1.50     -1114.5963   6.0000                                         
     3  2  2.50      -821.1793  10.0000                                         
     4  0  0.50      -266.3851   2.0000                                         
     4  1  1.50      -199.9276   6.0000                                         
     4  2  2.50      -103.8239  10.0000                                         
     5  0  0.50       -38.9172   2.0000                                         
     6  0  0.50        -3.6792   2.0000                                         
     5  1  1.50       -22.3948   6.0000                                         
     5  2  2.50        -3.0911   0.9999                                         
     4  3  2.50        -4.3603   0.0001                                         
   Description                                                                  
     l       E           TYP  RCUT    TYP  RCUT                                 
     0    -38.9171645     23  2.800                                             
     0     -3.6792381     23  2.800                                             
     1    -22.3948300     23  2.500                                             
     1     27.2116520     23  2.500                                             
     2     -3.0910934     23  2.500                                             
     2      1.0119135     23  2.500                                             
     3     -4.3602911     23  2.800                                             
     3     -5.7208737     23  2.800                                             
  local pseudopotential read in
  partial core-charges read in
  partial kinetic energy density read in
  atomic valenz-charges read in
  non local Contribution for L=           0  read in
    real space projection operators read in
  non local Contribution for L=           0  read in
    real space projection operators read in
  non local Contribution for L=           1  read in
    real space projection operators read in
  non local Contribution for L=           1  read in
    real space projection operators read in
  non local Contribution for L=           2  read in
    real space projection operators read in
  non local Contribution for L=           2  read in
    real space projection operators read in
  non local Contribution for L=           3  read in
    real space projection operators read in
  non local Contribution for L=           3  read in
    real space projection operators read in
    PAW grid and wavefunctions read in
 
   number of l-projection  operators is LMAX  =           8
   number of lm-projection operators is LMMAX =          32
 
 POTCAR:    PAW_PBE Mn 06Sep2000                  
   VRHFIN =Mn: d6 s1                                                            
   LEXCH  = PE                                                                  
   EATOM  =   416.7541 eV,   30.6306 Ry                                         
                                                                                
   TITEL  = PAW_PBE Mn 06Sep2000                                                
   LULTRA =        F    use ultrasoft PP ?                                      
   IUNSCR =        1    unscreen: 0-lin 1-nonlin 2-no                           
   RPACOR =    2.000    partial core radius                                     
   POMASS =   54.938; ZVAL   =    7.000    mass and valenz                      
   RCORE  =    2.300    outmost cutoff radius                                   
   RWIGS  =    2.500; RWIGS  =    1.323    wigner-seitz radius (au A)           
   ENMAX  =  269.864; ENMIN  =  202.398 eV                                      
   RCLOC  =    1.725    cutoff for local pot                                    
   LCOR   =        T    correct aug charges                                     
   LPAW   =        T    paw PP                                                  
   EAUG   =  500.711                                                            
   DEXC   =    0.000                                                            
   RMAX   =    2.343    core radius for proj-oper                               
   RAUG   =    1.300    factor for augmentation sphere                          
   RDEP   =    2.338    radius for radial grids                                 
   RDEPT  =    1.911    core radius for aug-charge                              
                                                                                
   Atomic configuration                                                         
    9 entries                                                                   
     n  l   j            E        occ.                                          
     1  0  0.50     -6424.8288   2.0000                                         
     2  0  0.50      -739.1154   2.0000                                         
     2  1  1.50      -625.3949   6.0000                                         
     3  0  0.50       -81.6100   2.0000                                         
     3  1  1.50       -50.4667   6.0000                                         
     3  2  2.50        -3.3745   6.0000                                         
     4  0  0.50        -4.1331   1.0000                                         
     4  1  0.50        -4.0817   0.0000                                         
     4  3  2.50        -1.3606   0.0000                                         
   Description                                                                  
     l       E           TYP  RCUT    TYP  RCUT                                 
     2     -3.3744664     23  2.300                                             
     2     -4.7350490     23  2.300                                             
     0     -4.1331408     23  2.300                                             
     0      7.6656614     23  2.300                                             
     1     -2.7211652     23  2.300                                             
     1     20.4087390     23  2.300                                             
  local pseudopotential read in
  partial core-charges read in
  partial kinetic energy density read in
  atomic valenz-charges read in
  non local Contribution for L=           2  read in
    real space projection operators read in
  non local Contribution for L=           2  read in
    real space projection operators read in
  non local Contribution for L=           0  read in
    real space projection operators read in
  non local Contribution for L=           0  read in
    real space projection operators read in
  non local Contribution for L=           1  read in
    real space projection operators read in
  non local Contribution for L=           1  read in
    real space projection operators read in
    PAW grid and wavefunctions read in
 
   number of l-projection  operators is LMAX  =           6
   number of lm-projection operators is LMMAX =          18
 
 POTCAR:    PAW_PBE Ni 02Aug2007                  
   VRHFIN =Ni:                                                                  
   LEXCH  = PE                                                                  
   EATOM  =  1077.6739 eV,   79.2068 Ry                                         
                                                                                
   TITEL  = PAW_PBE Ni 02Aug2007                                                
   LULTRA =        F    use ultrasoft PP ?                                      
   IUNSCR =        1    unscreen: 0-lin 1-nonlin 2-no                           
   RPACOR =    2.000    partial core radius                                     
   POMASS =   58.690; ZVAL   =   10.000    mass and valenz                      
   RCORE  =    2.300    outmost cutoff radius                                   
   RWIGS  =    2.430; RWIGS  =    1.286    wigner-seitz radius (au A)           
   ENMAX  =  269.532; ENMIN  =  202.149 eV                                      
   RCLOC  =    1.201    cutoff for local pot                                    
   LCOR   =        T    correct aug charges                                     
   LPAW   =        T    paw PP                                                  
   EAUG   =  544.565                                                            
   DEXC   =    0.000                                                            
   RMAX   =    2.357    core radius for proj-oper                               
   RAUG   =    1.300    factor for augmentation sphere                          
   RDEP   =    2.390    radius for radial grids                                 
   RDEPT  =    1.838    core radius for aug-charge                              
                                                                                
   Atomic configuration                                                         
    9 entries                                                                   
     n  l   j            E        occ.                                          
     1  0  0.50     -8206.4253   2.0000                                         
     2  0  0.50      -976.1748   2.0000                                         
     2  1  1.50      -839.0571   6.0000                                         
     3  0  0.50      -105.9991   2.0000                                         
     3  1  1.50       -66.4603   6.0000                                         
     3  2  2.50        -4.6458   9.0000                                         
     4  0  0.50        -4.4926   1.0000                                         
     4  1  1.50        -4.0817   0.0000                                         
     4  3  2.50        -1.3606   0.0000                                         
   Description                                                                  
     l       E           TYP  RCUT    TYP  RCUT                                 
     2     -4.6457903     23  2.300                                             
     2     -6.0063729     23  2.300                                             
     0     -4.4925590     23  2.300                                             
     0      5.0102601     23  2.300                                             
     1     -2.7211652     23  2.300                                             
     1     16.5183231     23  2.300                                             
  local pseudopotential read in
  partial core-charges read in
  partial kinetic energy density read in
  atomic valenz-charges read in
  non local Contribution for L=           2  read in
    real space projection operators read in
  non local Contribution for L=           2  read in
    real space projection operators read in
  non local Contribution for L=           0  read in
    real space projection operators read in
  non local Contribution for L=           0  read in
    real space projection operators read in
  non local Contribution for L=           1  read in
    real space projection operators read in
  non local Contribution for L=           1  read in
    real space projection operators read in
    PAW grid and wavefunctions read in
 
   number of l-projection  operators is LMAX  =           6
   number of lm-projection operators is LMMAX =          18
 
 POTCAR:    PAW_PBE O 08Apr2002                   
   VRHFIN =O: s2p4                                                              
   LEXCH  = PE                                                                  
   EATOM  =   432.3788 eV,   31.7789 Ry                                         
                                                                                
   TITEL  = PAW_PBE O 08Apr2002                                                 
   LULTRA =        F    use ultrasoft PP ?                                      
   IUNSCR =        1    unscreen: 0-lin 1-nonlin 2-no                           
   RPACOR =    1.200    partial core radius                                     
   POMASS =   16.000; ZVAL   =    6.000    mass and valenz                      
   RCORE  =    1.520    outmost cutoff radius                                   
   RWIGS  =    1.550; RWIGS  =    0.820    wigner-seitz radius (au A)           
   ENMAX  =  400.000; ENMIN  =  300.000 eV                                      
   ICORE  =        2    local potential                                         
   LCOR   =        T    correct aug charges                                     
   LPAW   =        T    paw PP                                                  
   EAUG   =  605.392                                                            
   DEXC   =    0.000                                                            
   RMAX   =    1.553    core radius for proj-oper                               
   RAUG   =    1.300    factor for augmentation sphere                          
   RDEP   =    1.550    radius for radial grids                                 
   RDEPT  =    1.329    core radius for aug-charge                              
                                                                                
   Atomic configuration                                                         
    4 entries                                                                   
     n  l   j            E        occ.                                          
     1  0  0.50      -514.6923   2.0000                                         
     2  0  0.50       -23.9615   2.0000                                         
     2  1  0.50        -9.0305   4.0000                                         
     3  2  1.50        -9.5241   0.0000                                         
   Description                                                                  
     l       E           TYP  RCUT    TYP  RCUT                                 
     0    -23.9615318     23  1.200                                             
     0     -9.5240782     23  1.200                                             
     1     -9.0304911     23  1.520                                             
     1      8.1634956     23  1.520                                             
     2     -9.5240782      7  1.500                                             
  local pseudopotential read in
  partial core-charges read in
  partial kinetic energy density read in
  kinetic energy density of atom read in
  atomic valenz-charges read in
  non local Contribution for L=           0  read in
    real space projection operators read in
  non local Contribution for L=           0  read in
    real space projection operators read in
  non local Contribution for L=           1  read in
    real space projection operators read in
  non local Contribution for L=           1  read in
    real space projection operators read in
    PAW grid and wavefunctions read in
 
   number of l-projection  operators is LMAX  =           4
   number of lm-projection operators is LMMAX =           8
 
 Optimization of the real space projectors (new method)

 maximal supplied QI-value         = 13.42
 optimisation between [QCUT,QGAM] = [ 11.67, 23.35] = [ 38.16,152.62] Ry 
 Optimized for a Real-space Cutoff    1.63 Angstroem

   l    n(q)    QCUT    max X(q) W(low)/X(q) W(high)/X(q)  e(spline) 
   0     11    11.673    13.882    0.27E-04    0.79E-05    0.11E-06
   0     11    11.673    12.184    0.39E-04    0.13E-04    0.19E-06
   1     11    11.673     4.523    0.73E-05    0.76E-05    0.12E-06
   1     11    11.673     4.424    0.87E-05    0.13E-04    0.19E-06
   2     10    11.673    52.481    0.65E-04    0.36E-04    0.18E-06
   2     10    11.673    38.501    0.61E-04    0.33E-04    0.17E-06
   3     10    11.673    65.631    0.17E-03    0.14E-03    0.37E-06
   3     10    11.673    56.854    0.17E-03    0.14E-03    0.37E-06
 Optimization of the real space projectors (new method)

 maximal supplied QI-value         = 16.25
 optimisation between [QCUT,QGAM] = [ 11.54, 23.24] = [ 37.28,151.24] Ry 
 Optimized for a Real-space Cutoff    1.53 Angstroem

   l    n(q)    QCUT    max X(q) W(low)/X(q) W(high)/X(q)  e(spline) 
   2     10    11.539   110.144    0.12E-03    0.13E-03    0.25E-06
   2     10    11.539   103.200    0.12E-03    0.13E-03    0.25E-06
   0     11    11.539    68.437    0.46E-04    0.21E-04    0.32E-06
   0     11    11.539    33.971    0.37E-04    0.19E-04    0.29E-06
   1     10    11.539    17.065    0.51E-04    0.22E-04    0.13E-06
   1     10    11.539    12.540    0.41E-04    0.18E-04    0.11E-06
 Optimization of the real space projectors (new method)

 maximal supplied QI-value         = 16.25
 optimisation between [QCUT,QGAM] = [ 11.54, 23.24] = [ 37.28,151.24] Ry 
 Optimized for a Real-space Cutoff    1.45 Angstroem

   l    n(q)    QCUT    max X(q) W(low)/X(q) W(high)/X(q)  e(spline) 
   2      9    11.539    60.317    0.19E-03    0.47E-04    0.16E-06
   2      9    11.539    55.921    0.19E-03    0.48E-04    0.16E-06
   0     10    11.539    51.690    0.80E-04    0.50E-04    0.24E-06
   0     10    11.539    30.015    0.73E-04    0.45E-04    0.22E-06
   1     10    11.539    18.849    0.87E-04    0.16E-03    0.71E-07
   1     10    11.539    14.624    0.73E-04    0.13E-03    0.64E-07
 Optimization of the real space projectors (new method)

 maximal supplied QI-value         = 24.76
 optimisation between [QCUT,QGAM] = [ 11.64, 23.27] = [ 37.91,151.63] Ry 
 Optimized for a Real-space Cutoff    1.14 Angstroem

   l    n(q)    QCUT    max X(q) W(low)/X(q) W(high)/X(q)  e(spline) 
   0      8    11.635    20.381    0.10E-03    0.33E-03    0.24E-06
   0      8    11.635    15.268    0.11E-03    0.35E-03    0.26E-06
   1      7    11.635     5.964    0.24E-03    0.31E-03    0.30E-06
   1      7    11.635     5.382    0.22E-03    0.25E-03    0.26E-06
  PAW_PBE La 06Sep2000                  :
 energy of atom  1       EATOM= -865.9763
 kinetic energy error for atom=    0.0009 (will be added to EATOM!!)
  PAW_PBE Mn 06Sep2000                  :
 energy of atom  2       EATOM= -416.7541
 kinetic energy error for atom=    0.0024 (will be added to EATOM!!)
  PAW_PBE Ni 02Aug2007                  :
 energy of atom  3       EATOM=-1077.6739
 kinetic energy error for atom=    0.0030 (will be added to EATOM!!)
  PAW_PBE O 08Apr2002                   :
 energy of atom  4       EATOM= -432.3788
 kinetic energy error for atom=    0.0208 (will be added to EATOM!!)
 
 
 POSCAR: SCEL6_2_1_3_0_0_1/3                     
  positions in direct lattice
  velocities in cartesian coordinates
 exchange correlation table for  LEXCH =        8
   RHO(1)=    0.500       N(1)  =     2000
   RHO(2)=  100.500       N(2)  =     4000
 


--------------------------------------------------------------------------------------------------------


 ion  position               nearest neighbor table
   1  0.500  0.500  0.334-  19 2.73  22 2.73  25 2.73  28 2.73  17 2.74  17 2.74  14 2.74  14 2.74
                            23 2.75  29 2.75  20 2.75  26 2.75   8 3.35   8 3.35  10 3.36  10 3.36
   2  0.000  0.000  0.667-  13 2.74  16 2.74  13 2.74  16 2.74  27 2.75  30 2.75  21 2.75  24 2.75
                            28 2.75  19 2.75  25 2.75  22 2.75  12 3.36  12 3.36  10 3.36  10 3.36
   3  0.500  0.500  0.999-  21 2.73  24 2.73  27 2.73  30 2.73  15 2.74  15 2.74  18 2.74  18 2.74
                            29 2.75  20 2.75  26 2.75  23 2.75   9 3.35   9 3.35  12 3.36  12 3.36
   4  0.000  0.000  0.334-  19 2.73  22 2.73  25 2.73  28 2.73  17 2.74  17 2.74  14 2.74  14 2.74
                            23 2.75  29 2.75  20 2.75  26 2.75   8 3.35   8 3.35  10 3.36  10 3.36
   5  0.500  0.500  0.667-  13 2.74  16 2.74  16 2.74  13 2.74  27 2.75  30 2.75  21 2.75  24 2.75
                            28 2.75  19 2.75  25 2.75  22 2.75  12 3.36  12 3.36  10 3.36  10 3.36
   6  0.000  0.000  0.999-  21 2.73  24 2.73  27 2.73  30 2.73  15 2.74  15 2.74  18 2.74  18 2.74
                            29 2.75  20 2.75  26 2.75  23 2.75   9 3.35   9 3.35  12 3.36  12 3.36
   7  0.500  0.000  0.167-  14 1.90  18 1.90  20 1.90  23 1.90  26 1.90  29 1.90   1 3.36   4 3.36
                             1 3.36   4 3.36   3 3.36   3 3.36   6 3.36   6 3.36
   8  0.000  0.500  0.498-  17 1.88  19 1.89  22 1.89  25 1.89  28 1.89  13 1.96   1 3.35   4 3.35
                             4 3.35   1 3.35   2 3.37   2 3.37   5 3.37   5 3.37
   9  0.000  0.500  0.835-  15 1.88  21 1.89  24 1.89  27 1.89  30 1.89  13 1.96   3 3.35   6 3.35
                             6 3.35   3 3.35   2 3.37   5 3.37   2 3.37   5 3.37
  10  0.500  0.000  0.500-  16 1.93  14 1.98  19 1.99  22 1.99  25 1.99  28 1.99   2 3.36   5 3.36
                             5 3.36   2 3.36   1 3.36   4 3.36   1 3.36   4 3.36
  11  0.000  0.500  0.167-  20 1.98  23 1.98  26 1.98  29 1.98  17 1.98  15 1.98   1 3.36   4 3.36
                             4 3.36   1 3.36   3 3.36   6 3.36   6 3.36   3 3.36
  12  0.500  0.000  0.833-  16 1.93  18 1.98  21 1.99  24 1.99  27 1.99  30 1.99   2 3.36   5 3.36
                             5 3.36   2 3.36   3 3.36   3 3.36   6 3.36   6 3.36
  13  0.000  0.500  0.667-   9 1.96   8 1.96   2 2.74   5 2.74   2 2.74   5 2.74
  14  0.500  0.000  0.330-   7 1.90  10 1.98   1 2.74   4 2.74   1 2.74   4 2.74
  15  0.000  0.500  0.997-   9 1.88  11 1.98   3 2.74   6 2.74   6 2.74   3 2.74
  16  0.500  0.000  0.667-  12 1.93  10 1.93   2 2.74   5 2.74   5 2.74   2 2.74
  17  0.000  0.500  0.337-   8 1.88  11 1.98   1 2.74   4 2.74   4 2.74   1 2.74
  18  0.500  0.000  0.003-   7 1.90  12 1.98   3 2.74   6 2.74   3 2.74   6 2.74
  19  0.756  0.744  0.499-   8 1.89  10 1.99   1 2.73   4 2.73   2 2.75   5 2.75
  20  0.255  0.245  0.167-   7 1.90  11 1.98   1 2.75   4 2.75   3 2.75   6 2.75
  21  0.756  0.744  0.834-   9 1.89  12 1.99   3 2.73   6 2.73   5 2.75   2 2.75
  22  0.244  0.256  0.499-   8 1.89  10 1.99   1 2.73   4 2.73   2 2.75   5 2.75
  23  0.745  0.755  0.167-   7 1.90  11 1.98   1 2.75   4 2.75   3 2.75   6 2.75
  24  0.244  0.256  0.834-   9 1.89  12 1.99   3 2.73   6 2.73   5 2.75   2 2.75
  25  0.756  0.256  0.499-   8 1.89  10 1.99   1 2.73   4 2.73   2 2.75   5 2.75
  26  0.255  0.755  0.167-   7 1.90  11 1.98   1 2.75   4 2.75   3 2.75   6 2.75
  27  0.756  0.256  0.834-   9 1.89  12 1.99   3 2.73   6 2.73   5 2.75   2 2.75
  28  0.244  0.744  0.499-   8 1.89  10 1.99   1 2.73   4 2.73   2 2.75   5 2.75
  29  0.745  0.245  0.167-   7 1.90  11 1.98   1 2.75   4 2.75   3 2.75   6 2.75
  30  0.244  0.744  0.834-   9 1.89  12 1.99   3 2.73   6 2.73   5 2.75   2 2.75
 
  LATTYP: Found a simple tetragonal cell.
 ALAT       =     5.4868334560
 C/A-ratio  =     2.1205576302
  
  Lattice vectors:
  
 A1 = (   3.8797771440,   3.8797771440,   0.0000000000)
 A2 = (   3.8797771440,  -3.8797771440,   0.0000000000)
 A3 = (   0.0000000000,   0.0000000000, -11.6351465507)


Analysis of symmetry for initial positions (statically):
=====================================================================
 Subroutine PRICEL returns:
 Original cell was already a primitive cell.
 

 Routine SETGRP: Setting up the symmetry group for a 
 simple tetragonal supercell.


 Subroutine GETGRP returns: Found 16 space group operations
 (whereof  4 operations were pure point group operations)
 out of a pool of 16 trial point group operations.


The static configuration has the point symmetry C_2v.
 The point group associated with its full space group is D_4h.


Analysis of symmetry for dynamics (positions and initial velocities):
=====================================================================
 Subroutine PRICEL returns:
 Original cell was already a primitive cell.
 

 Routine SETGRP: Setting up the symmetry group for a 
 simple tetragonal supercell.


 Subroutine GETGRP returns: Found 16 space group operations
 (whereof  4 operations were pure point group operations)
 out of a pool of 16 trial point group operations.


The dynamic configuration has the point symmetry C_2v.
 The point group associated with its full space group is D_4h.


Analysis of structural, dynamic, and magnetic symmetry:
=====================================================================
 Subroutine PRICEL returns:
 Original cell was already a primitive cell.
 

 Routine SETGRP: Setting up the symmetry group for a 
 simple tetragonal supercell.


 Subroutine GETGRP returns: Found 16 space group operations
 (whereof  4 operations were pure point group operations)
 out of a pool of 16 trial point group operations.


The magnetic configuration has the point symmetry C_2v.
 The point group associated with its full space group is D_4h.


 Subroutine INISYM returns: Found 16 space group operations
 (whereof  4 operations are pure point group operations),
 and found     1 'primitive' translations

 
 
 KPOINTS: Automatic mesh                          

Automatic generation of k-mesh.
 generate k-points for:    4    4    2
Space group operators:
 irot       det(A)        alpha          n_x          n_y          n_z        tau_x        tau_y        tau_z
    1     1.000000     0.000000     1.000000     0.000000     0.000000     0.000000     0.000000     0.000000
    2     1.000000   180.000000     0.000000     0.000000     1.000000     0.000000     0.000000     0.000000
    3    -1.000000   180.000000     0.707107    -0.707107     0.000000     0.000000     0.000000     0.000000
    4    -1.000000   180.000000     0.707107     0.707107     0.000000     0.000000     0.000000     0.000000
    5    -1.000000     0.000000     1.000000     0.000000     0.000000     0.000000     0.000000     0.333333
    6     1.000000    90.000000     0.000000     0.000000     1.000000     0.500000     0.500000     0.000000
    7    -1.000000    90.000000     0.000000     0.000000     1.000000     0.500000     0.500000     0.333333
    8    -1.000000   180.000000     0.000000     0.000000     1.000000     0.000000     0.000000     0.333333
    9     1.000000    90.000000     0.000000     0.000000    -1.000000     0.500000     0.500000     0.000000
   10    -1.000000    90.000000     0.000000     0.000000    -1.000000     0.500000     0.500000     0.333333
   11     1.000000   180.000000     0.707107    -0.707107     0.000000     0.000000     0.000000     0.333333
   12     1.000000   180.000000     1.000000     0.000000     0.000000     0.500000     0.500000     0.333333
   13    -1.000000   180.000000     1.000000     0.000000     0.000000     0.500000     0.500000     0.000000
   14     1.000000   180.000000     0.707107     0.707107     0.000000     0.000000     0.000000     0.333333
   15     1.000000   180.000000     0.000000     1.000000     0.000000     0.500000     0.500000     0.333333
   16    -1.000000   180.000000     0.000000     1.000000     0.000000     0.500000     0.500000     0.000000
 
 Subroutine IBZKPT returns following result:
 ===========================================
 
 Found     12 irreducible k-points:
 
 Following reciprocal coordinates:
            Coordinates               Weight
  0.000000  0.000000  0.000000      1.000000
  0.250000  0.000000  0.000000      4.000000
  0.500000  0.000000  0.000000      2.000000
  0.250000  0.250000  0.000000      4.000000
  0.500000  0.250000  0.000000      4.000000
  0.500000  0.500000  0.000000      1.000000
  0.000000  0.000000  0.500000      1.000000
  0.250000  0.000000  0.500000      4.000000
  0.500000  0.000000  0.500000      2.000000
  0.250000  0.250000  0.500000      4.000000
  0.500000  0.250000  0.500000      4.000000
  0.500000  0.500000  0.500000      1.000000
 
 Following cartesian coordinates:
            Coordinates               Weight
  0.000000  0.000000  0.000000      1.000000
  0.032218  0.032218  0.000000      4.000000
  0.064437  0.064437  0.000000      2.000000
  0.064437  0.000000  0.000000      4.000000
  0.096655  0.032218  0.000000      4.000000
  0.128873  0.000000  0.000000      1.000000
  0.000000  0.000000 -0.042973      1.000000
  0.032218  0.032218 -0.042973      4.000000
  0.064437  0.064437 -0.042973      2.000000
  0.064437  0.000000 -0.042973      4.000000
  0.096655  0.032218 -0.042973      4.000000
  0.128873  0.000000 -0.042973      1.000000
 
 TETIRR: Found     48 inequivalent tetrahedra from      192


--------------------------------------------------------------------------------------------------------




 Dimension of arrays:
   k-points           NKPTS =     12   k-points in BZ     NKDIM =     12   number of bands    NBANDS=    146
   number of dos      NEDOS =    301   number of ions     NIONS =     30
   non local maximal  LDIM  =      8   non local SUM 2l+1 LMDIM =     32
   total plane-waves  NPLWV = 158760
   max r-space proj   IRMAX =   8230   max aug-charges    IRDMAX=  23880
   dimension x,y,z NGX =    42 NGY =   42 NGZ =   90
   dimension x,y,z NGXF=    84 NGYF=   84 NGZF=  180
   support grid    NGXF=    84 NGYF=   84 NGZF=  180
   ions per type =               6   3   3  18
   NGX,Y,Z   is equivalent  to a cutoff of  12.73, 12.73, 12.86 a.u.
   NGXF,Y,Z  is equivalent  to a cutoff of  25.45, 25.45, 25.72 a.u.

 SYSTEM =  final                                   
 POSCAR =  SCEL6_2_1_3_0_0_1/3                     

 Startparameter for this run:
   NWRITE =      2    write-flag & timer
   PREC   = accura    normal or accurate (medium, high low for compatibility)
   ISTART =      0    job   : 0-new  1-cont  2-samecut
   ICHARG =      1    charge: 1-file 2-atom 10-const
   ISPIN  =      2    spin polarized calculation?
   LNONCOLLINEAR =      F non collinear calculations
   LSORBIT =      F    spin-orbit coupling
   INIWAV =      1    electr: 0-lowe 1-rand  2-diag
   LASPH  =      F    aspherical Exc in radial PAW
   METAGGA=      F    non-selfconsistent MetaGGA calc.

 Electronic Relaxation 1
   ENCUT  =  520.0 eV  38.22 Ry    6.18 a.u.  10.20 10.20 21.63*2*pi/ulx,y,z
   ENINI  =  520.0     initial cutoff
   ENAUG  =  605.4 eV  augmentation charge cutoff
   NELM   =    100;   NELMIN=  2; NELMDL= -5     # of ELM steps 
   EDIFF  = 0.1E-02   stopping-criterion for ELM
   LREAL  =      T    real-space projection
   NLSPLINE    = F    spline interpolate recip. space projectors
   LCOMPAT=      F    compatible to vasp.4.4
   GGA_COMPAT  = T    GGA compatible to vasp.4.4-vasp.4.6
   LMAXPAW     = -100 max onsite density
   LMAXMIX     =    6 max onsite mixed and CHGCAR
   VOSKOWN=      0    Vosko Wilk Nusair interpolation
   ROPT   =   -0.00025  -0.00025  -0.00025  -0.00025
 Ionic relaxation
   EDIFFG = 0.1E-01   stopping-criterion for IOM
   NSW    =      0    number of steps for IOM
   NBLOCK =      1;   KBLOCK =      1    inner block; outer block 
   IBRION =     -1    ionic relax: 0-MD 1-quasi-New 2-CG
   NFREE  =      0    steps in history (QN), initial steepest desc. (CG)
   ISIF   =      2    stress and relaxation
   IWAVPR =     10    prediction:  0-non 1-charg 2-wave 3-comb
   ISYM   =      2    0-nonsym 1-usesym 2-fastsym
   LCORR  =      T    Harris-Foulkes like correction to forces

   POTIM  = 0.5000    time-step for ionic-motion
   TEIN   =    0.0    initial temperature
   TEBEG  =    0.0;   TEEND  =   0.0 temperature during run
   SMASS  =  -3.00    Nose mass-parameter (am)
   estimated Nose-frequenzy (Omega)   =  0.10E-29 period in steps =****** mass=  -0.688E-27a.u.
   SCALEE = 1.0000    scale energy and forces
   NPACO  =    256;   APACO  = 16.0  distance and # of slots for P.C.
   PSTRESS=    0.0 pullay stress

  Mass of Ions in am
   POMASS = 138.90 54.94 58.69 16.00
  Ionic Valenz
   ZVAL   =  11.00  7.00 10.00  6.00
  Atomic Wigner-Seitz radii
   RWIGS  =  -1.00 -1.00 -1.00 -1.00
  virtual crystal weights 
   VCA    =   1.00  1.00  1.00  1.00
   NELECT =     225.0000    total number of electrons
   NUPDOWN=      -1.0000    fix difference up-down

 DOS related values:
   EMIN   =  10.00;   EMAX   =-10.00  energy-range for DOS
   EFERMI =   0.00
   ISMEAR =    -5;   SIGMA  =   0.05  broadening in eV -4-tet -1-fermi 0-gaus

 Electronic relaxation 2 (details)
   IALGO  =     68    algorithm
   LDIAG  =      T    sub-space diagonalisation (order eigenvalues)
   LSUBROT=      F    optimize rotation matrix (better conditioning)
   TURBO    =      0    0=normal 1=particle mesh
   IRESTART =      0    0=no restart 2=restart with 2 vectors
   NREBOOT  =      0    no. of reboots
   NMIN     =      0    reboot dimension
   EREF     =   0.00    reference energy to select bands
   IMIX   =      4    mixing-type and parameters
     AMIX     =   0.40;   BMIX     =  1.00
     AMIX_MAG =   1.60;   BMIX_MAG =  1.00
     AMIN     =   0.10
     WC   =   100.;   INIMIX=   1;  MIXPRE=   1;  MAXMIX= -45

 Intra band minimization:
   WEIMIN = 0.0000     energy-eigenvalue tresh-hold
   EBREAK =  0.17E-05  absolut break condition
   DEPER  =   0.30     relativ break condition  

   TIME   =   0.40     timestep for ELM

  volume/ion in A,a.u.               =      11.68        78.79
  Fermi-wavevector in a.u.,A,eV,Ry     =   1.412528  2.669292 27.146842  1.995237
  Thomas-Fermi vector in A             =   2.534268
 
 Write flags
   LWAVE        =      F    write WAVECAR
   LDOWNSAMPLE  =      F    k-point downsampling of WAVECAR
   LCHARG       =      T    write CHGCAR
   LVTOT        =      F    write LOCPOT, total local potential
   LVHAR        =      F    write LOCPOT, Hartree potential only
   LELF         =      F    write electronic localiz. function (ELF)
   LORBIT       =     11    0 simple, 1 ext, 2 COOP (PROOUT), +10 PAW based schemes


 Dipole corrections
   LMONO  =      F    monopole corrections only (constant potential shift)
   LDIPOL =      F    correct potential (dipole corrections)
   IDIPOL =      0    1-x, 2-y, 3-z, 4-all directions 
   EPSILON=  1.0000000 bulk dielectric constant

 LDA+U is selected, type is set to LDAUTYPE =  2
   angular momentum for each species LDAUL =     0    2    2    0
   U (eV)           for each species LDAUU =   0.0  3.9  6.2  0.0
   J (eV)           for each species LDAUJ =   0.0  0.0  0.0  0.0
 Exchange correlation treatment:
   GGA     =    --    GGA type
   LEXCH   =     8    internal setting for exchange type
   VOSKOWN=      0    Vosko Wilk Nusair interpolation
   LHFCALC =     F    Hartree Fock is set to
   LHFONE  =     F    Hartree Fock one center treatment
   AEXX    =    0.0000 exact exchange contribution

 Linear response parameters
   LEPSILON=     F    determine dielectric tensor
   LRPA    =     F    only Hartree local field effects (RPA)
   LNABLA  =     F    use nabla operator in PAW spheres
   LVEL    =     F    velocity operator in full k-point grid
   LINTERFAST=   F  fast interpolation
   KINTER  =     0    interpolate to denser k-point grid
   CSHIFT  =0.1000    complex shift for real part using Kramers Kronig
   OMEGAMAX=  -1.0    maximum frequency
   DEG_THRESHOLD= 0.2000000E-02 threshold for treating states as degnerate
   RTIME   =   -0.100 relaxation time in fs
  (WPLASMAI=    0.000 imaginary part of plasma frequency in eV, 0.658/RTIME)
   DFIELD  = 0.0000000 0.0000000 0.0000000 field for delta impulse in time
 
 Orbital magnetization related:
   ORBITALMAG=     F  switch on orbital magnetization
   LCHIMAG   =     F  perturbation theory with respect to B field
   DQ        =  0.001000  dq finite difference perturbation B field
   LLRAUG    =     F  two centre corrections for induced B field



--------------------------------------------------------------------------------------------------------


 Static calculation
 charge density and potential will be updated during run
 spin polarized calculation
 RMM-DIIS sequential band-by-band and
  variant of blocked Davidson during initial phase
 perform sub-space diagonalisation
    before iterative eigenvector-optimisation
 modified Broyden-mixing scheme, WC =      100.0
 initial mixing is a Kerker type mixing with AMIX =  0.4000 and BMIX =      1.0000
 Hartree-type preconditioning will be used
 using additional bands           33
 real space projection scheme for non local part
 use partial core corrections
 calculate Harris-corrections to forces 
   (improved forces if not selfconsistent)
 use gradient corrections 
 use of overlap-Matrix (Vanderbilt PP)
 Fermi weights with tetrahedron method with Bloechl corrections


--------------------------------------------------------------------------------------------------------


  energy-cutoff  :      520.00
  volume of cell :      350.28
      direct lattice vectors                 reciprocal lattice vectors
     3.879777144  3.879777144  0.000000000     0.128873381  0.128873381  0.000000000
     3.879777144 -3.879777144  0.000000000     0.128873381 -0.128873381  0.000000000
     0.000000000  0.000000000-11.635146551     0.000000000  0.000000000 -0.085946489

  length of vectors
     5.486833456  5.486833456 11.635146551     0.182254484  0.182254484  0.085946489


 
 k-points in units of 2pi/SCALE and weight: Automatic mesh                          
   0.00000000  0.00000000  0.00000000       0.031
   0.03221835  0.03221835  0.00000000       0.125
   0.06443669  0.06443669  0.00000000       0.062
   0.06443669  0.00000000  0.00000000       0.125
   0.09665504  0.03221835  0.00000000       0.125
   0.12887338  0.00000000  0.00000000       0.031
   0.00000000  0.00000000 -0.04297324       0.031
   0.03221835  0.03221835 -0.04297324       0.125
   0.06443669  0.06443669 -0.04297324       0.062
   0.06443669  0.00000000 -0.04297324       0.125
   0.09665504  0.03221835 -0.04297324       0.125
   0.12887338  0.00000000 -0.04297324       0.031
 
 k-points in reciprocal lattice and weights: Automatic mesh                          
   0.00000000  0.00000000  0.00000000       0.031
   0.25000000  0.00000000  0.00000000       0.125
   0.50000000  0.00000000  0.00000000       0.062
   0.25000000  0.25000000  0.00000000       0.125
   0.50000000  0.25000000  0.00000000       0.125
   0.50000000  0.50000000  0.00000000       0.031
   0.00000000  0.00000000  0.50000000       0.031
   0.25000000  0.00000000  0.50000000       0.125
   0.50000000  0.00000000  0.50000000       0.062
   0.25000000  0.25000000  0.50000000       0.125
   0.50000000  0.25000000  0.50000000       0.125
   0.50000000  0.50000000  0.50000000       0.031
 
 position of ions in fractional coordinates (direct lattice) 
   0.50000000  0.50000000  0.33391369
   0.00000000  0.00000000  0.66666670
   0.50000000  0.50000000  0.99941961
   0.00000000  0.00000000  0.33391369
   0.50000000  0.50000000  0.66666670
   0.00000000  0.00000000  0.99941961
   0.50000000  0.00000000  0.16666670
   0.00000000  0.50000000  0.49846153
   0.00000000  0.50000000  0.83487177
   0.50000000  0.00000000  0.50046804
   0.00000000  0.50000000  0.16666670
   0.50000000  0.00000000  0.83286526
   0.00000000  0.50000000  0.66666670
   0.50000000  0.00000000  0.33001747
   0.00000000  0.50000000  0.99676826
   0.50000000  0.00000000  0.66666670
   0.00000000  0.50000000  0.33656504
   0.50000000  0.00000000  0.00331583
   0.75606865  0.74393135  0.49942550
   0.25459109  0.24540891  0.16666670
   0.75606865  0.74393135  0.83390780
   0.24393135  0.25606865  0.49942550
   0.74540891  0.75459109  0.16666670
   0.24393135  0.25606865  0.83390780
   0.75606865  0.25606865  0.49942550
   0.25459109  0.75459109  0.16666670
   0.75606865  0.25606865  0.83390780
   0.24393135  0.74393135  0.49942550
   0.74540891  0.24540891  0.16666670
   0.24393135  0.74393135  0.83390780
 
 position of ions in cartesian coordinates  (Angst):
   3.87977714  0.00000000 -3.88513473
   0.00000000  0.00000000 -7.75676475
   3.87977714  0.00000000-11.62839361
   0.00000000  0.00000000 -3.88513473
   3.87977714  0.00000000 -7.75676475
   0.00000000  0.00000000-11.62839361
   1.93988857  1.93988857 -1.93919148
   1.93988857 -1.93988857 -5.79967298
   1.93988857 -1.93988857 -9.71385537
   1.93988857  1.93988857 -5.82301900
   1.93988857 -1.93988857 -1.93919148
   1.93988857  1.93988857 -9.69050934
   1.93988857 -1.93988857 -7.75676475
   1.93988857  1.93988857 -3.83980164
   1.93988857 -1.93988857-11.59754474
   1.93988857  1.93988857 -7.75676475
   1.93988857 -1.93988857 -3.91598360
   1.93988857  1.93988857 -0.03858016
   5.81966572  0.04709003 -5.81088892
   1.93988857  0.03562482 -1.93919148
   5.81966572  0.04709003 -9.70263943
   1.93988857 -0.04709003 -5.81088892
   5.81966572 -0.03562482 -1.93919148
   1.93988857 -0.04709003 -9.70263943
   3.92686717  1.93988857 -5.81088892
   3.91540196 -1.93988857 -1.93919148
   3.92686717  1.93988857 -9.70263943
   3.83268712 -1.93988857 -5.81088892
   3.84415232  1.93988857 -1.93919148
   3.83268712 -1.93988857 -9.70263943
 


--------------------------------------------------------------------------------------------------------


 k-point  1 :   0.0000 0.0000 0.0000  plane waves:    9415
 k-point  2 :   0.2500 0.0000 0.0000  plane waves:    9448
 k-point  3 :   0.5000 0.0000 0.0000  plane waves:    9424
 k-point  4 :   0.2500 0.2500 0.0000  plane waves:    9418
 k-point  5 :   0.5000 0.2500 0.0000  plane waves:    9440
 k-point  6 :   0.5000 0.5000 0.0000  plane waves:    9420
 k-point  7 :   0.0000 0.0000 0.5000  plane waves:    9420
 k-point  8 :   0.2500 0.0000 0.5000  plane waves:    9428
 k-point  9 :   0.5000 0.0000 0.5000  plane waves:    9436
 k-point 10 :   0.2500 0.2500 0.5000  plane waves:    9416
 k-point 11 :   0.5000 0.2500 0.5000  plane waves:    9416
 k-point 12 :   0.5000 0.5000 0.5000  plane waves:    9504

 maximum and minimum number of plane-waves per node :       960      922

 maximum number of plane-waves:      9504
 maximum index in each direction: 
   IXMAX=   10   IYMAX=   10   IZMAX=   21
   IXMIN=  -10   IYMIN=  -10   IZMIN=  -22


 real space projection operators:
  total allocation   :      20178.78 KBytes
  max/ min on nodes  :       2403.61       1815.95


 parallel 3D FFT for wavefunctions:
    minimum data exchange during FFTs selected (reduces bandwidth)
 parallel 3D FFT for charge:
    minimum data exchange during FFTs selected (reduces bandwidth)


 total amount of memory used by VASP MPI-rank0    77408. kBytes
=======================================================================

   base      :      30000. kBytes
   nonlr-proj:       7153. kBytes
   fftplans  :       3030. kBytes
   grid      :       8843. kBytes
   one-center:        294. kBytes
   wavefun   :      28088. kBytes
 
     INWAV:  cpu time    0.0000: real time    0.0000
 Broyden mixing: mesh for mixing (old mesh)
   NGX = 21   NGY = 21   NGZ = 43
  (NGX  = 84   NGY  = 84   NGZ  =180)
  gives a total of  18963 points

 initial charge density was supplied:
 charge density of overlapping atoms calculated
 number of electron     225.0000000 magnetization      21.0000000
 keeping initial charge density in first step


--------------------------------------------------------------------------------------------------------


 Maximum index for non-local projection operator         1164
 Maximum index for augmentation-charges         1916 (set IRDMAX)


--------------------------------------------------------------------------------------------------------


 First call to EWALD:  gamma=   0.251
 Maximum number of real-space cells 3x 3x 2
 Maximum number of reciprocal cells 2x 2x 4

    FEWALD:  cpu time    0.0015: real time    0.0015


--------------------------------------- Iteration      1(   1)  ---------------------------------------


    POTLOK:  cpu time    0.0809: real time    0.0830
    SETDIJ:  cpu time    0.0162: real time    0.0162
atom =   1  type =  1  l = 0
 
 onsite density matrix
 
spin component  1
 
  1.0989
 
spin component  2
 
  1.0989
 
 occupancies and eigenvectors
 
  o =  1.0989  v =  1.0000  0.0000      0.0000  0.0000
  o =  1.0989  v =  0.0000  1.0000      0.0000  0.0000
atom =   2  type =  1  l = 0
 
 onsite density matrix
 
spin component  1
 
  1.0989
 
spin component  2
 
  1.0989
 
 occupancies and eigenvectors
 
  o =  1.0989  v =  1.0000  0.0000      0.0000  0.0000
  o =  1.0989  v =  0.0000  1.0000      0.0000  0.0000
atom =   3  type =  1  l = 0
 
 onsite density matrix
 
spin component  1
 
  1.0989
 
spin component  2
 
  1.0989
 
 occupancies and eigenvectors
 
  o =  1.0989  v =  1.0000  0.0000      0.0000  0.0000
  o =  1.0989  v =  0.0000  1.0000      0.0000  0.0000
atom =   4  type =  1  l = 0
 
 onsite density matrix
 
spin component  1
 
  1.0989
 
spin component  2
 
  1.0989
 
 occupancies and eigenvectors
 
  o =  1.0989  v =  1.0000  0.0000      0.0000  0.0000
  o =  1.0989  v =  0.0000  1.0000      0.0000  0.0000
atom =   5  type =  1  l = 0
 
 onsite density matrix
 
spin component  1
 
  1.0989
 
spin component  2
 
  1.0989
 
 occupancies and eigenvectors
 
  o =  1.0989  v =  1.0000  0.0000      0.0000  0.0000
  o =  1.0989  v =  0.0000  1.0000      0.0000  0.0000
atom =   6  type =  1  l = 0
 
 onsite density matrix
 
spin component  1
 
  1.0989
 
spin component  2
 
  1.0989
 
 occupancies and eigenvectors
 
  o =  1.0989  v =  1.0000  0.0000      0.0000  0.0000
  o =  1.0989  v =  0.0000  1.0000      0.0000  0.0000
atom =   7  type =  2  l = 2
 
 onsite density matrix
 
spin component  1
 
  0.8272  0.0000  0.0000  0.0000  0.0000
  0.0000  0.8272  0.0000  0.0000  0.0000
  0.0000  0.0000  0.8272  0.0000  0.0000
  0.0000  0.0000  0.0000  0.8272  0.0000
  0.0000  0.0000  0.0000  0.0000  0.8272
 
spin component  2
 
  0.2256  0.0000  0.0000  0.0000  0.0000
  0.0000  0.2256  0.0000  0.0000  0.0000
  0.0000  0.0000  0.2256  0.0000  0.0000
  0.0000  0.0000  0.0000  0.2256  0.0000
  0.0000  0.0000  0.0000  0.0000  0.2256
 
 occupancies and eigenvectors
 
  o =  0.2256  v =  0.0000  0.0000  0.0000  0.0000  0.0000  0.0000  0.0000  1.0000  0.0000  0.0000      0.0000  0.0000  0.0000  0.0000  0.0000  0.0000  0.0000  0.0000  0.0000  0.0000
  o =  0.2256  v =  0.0000  0.0000  0.0000  0.0000  0.0000  1.0000  0.0000  0.0000  0.0000  0.0000      0.0000  0.0000  0.0000  0.0000  0.0000  0.0000  0.0000  0.0000  0.0000  0.0000
  o =  0.2256  v =  0.0000  0.0000  0.0000  0.0000  0.0000  0.0000  1.0000  0.0000  0.0000  0.0000      0.0000  0.0000  0.0000  0.0000  0.0000  0.0000  0.0000  0.0000  0.0000  0.0000
  o =  0.2256  v =  0.0000  0.0000  0.0000  0.0000  0.0000  0.0000  0.0000  0.0000  1.0000  0.0000      0.0000  0.0000  0.0000  0.0000  0.0000  0.0000  0.0000  0.0000  0.0000  0.0000
  o =  0.2256  v =  0.0000  0.0000  0.0000  0.0000  0.0000  0.0000  0.0000  0.0000  0.0000  1.0000      0.0000  0.0000  0.0000  0.0000  0.0000  0.0000  0.0000  0.0000  0.0000  0.0000
  o =  0.8272  v =  0.0000  1.0000  0.0000  0.0000  0.0000  0.0000  0.0000  0.0000  0.0000  0.0000      0.0000  0.0000  0.0000  0.0000  0.0000  0.0000  0.0000  0.0000  0.0000  0.0000
  o =  0.8272  v =  0.0000  0.0000  1.0000  0.0000  0.0000  0.0000  0.0000  0.0000  0.0000  0.0000      0.0000  0.0000  0.0000  0.0000  0.0000  0.0000  0.0000  0.0000  0.0000  0.0000
  o =  0.8272  v =  1.0000  0.0000  0.0000  0.0000  0.0000  0.0000  0.0000  0.0000  0.0000  0.0000      0.0000  0.0000  0.0000  0.0000  0.0000  0.0000  0.0000  0.0000  0.0000  0.0000
  o =  0.8272  v =  0.0000  0.0000  0.0000  1.0000  0.0000  0.0000  0.0000  0.0000  0.0000  0.0000      0.0000  0.0000  0.0000  0.0000  0.0000  0.0000  0.0000  0.0000  0.0000  0.0000
  o =  0.8272  v =  0.0000  0.0000  0.0000  0.0000  1.0000  0.0000  0.0000  0.0000  0.0000  0.0000      0.0000  0.0000  0.0000  0.0000  0.0000  0.0000  0.0000  0.0000  0.0000  0.0000
atom =   8  type =  2  l = 2
 
 onsite density matrix
 
spin component  1
 
  0.8272  0.0000  0.0000  0.0000  0.0000
  0.0000  0.8272  0.0000  0.0000  0.0000
  0.0000  0.0000  0.8272  0.0000  0.0000
  0.0000  0.0000  0.0000  0.8272  0.0000
  0.0000  0.0000  0.0000  0.0000  0.8272
 
spin component  2
 
  0.2256  0.0000  0.0000  0.0000  0.0000
  0.0000  0.2256  0.0000  0.0000  0.0000
  0.0000  0.0000  0.2256  0.0000  0.0000
  0.0000  0.0000  0.0000  0.2256  0.0000
  0.0000  0.0000  0.0000  0.0000  0.2256
 
 occupancies and eigenvectors
 
  o =  0.2256  v =  0.0000  0.0000  0.0000  0.0000  0.0000  0.0000  0.0000  1.0000  0.0000  0.0000      0.0000  0.0000  0.0000  0.0000  0.0000  0.0000  0.0000  0.0000  0.0000  0.0000
  o =  0.2256  v =  0.0000  0.0000  0.0000  0.0000  0.0000  1.0000  0.0000  0.0000  0.0000  0.0000      0.0000  0.0000  0.0000  0.0000  0.0000  0.0000  0.0000  0.0000  0.0000  0.0000
  o =  0.2256  v =  0.0000  0.0000  0.0000  0.0000  0.0000  0.0000  1.0000  0.0000  0.0000  0.0000      0.0000  0.0000  0.0000  0.0000  0.0000  0.0000  0.0000  0.0000  0.0000  0.0000
  o =  0.2256  v =  0.0000  0.0000  0.0000  0.0000  0.0000  0.0000  0.0000  0.0000  1.0000  0.0000      0.0000  0.0000  0.0000  0.0000  0.0000  0.0000  0.0000  0.0000  0.0000  0.0000
  o =  0.2256  v =  0.0000  0.0000  0.0000  0.0000  0.0000  0.0000  0.0000  0.0000  0.0000  1.0000      0.0000  0.0000  0.0000  0.0000  0.0000  0.0000  0.0000  0.0000  0.0000  0.0000
  o =  0.8272  v =  0.0000  1.0000  0.0000  0.0000  0.0000  0.0000  0.0000  0.0000  0.0000  0.0000      0.0000  0.0000  0.0000  0.0000  0.0000  0.0000  0.0000  0.0000  0.0000  0.0000
  o =  0.8272  v =  0.0000  0.0000  1.0000  0.0000  0.0000  0.0000  0.0000  0.0000  0.0000  0.0000      0.0000  0.0000  0.0000  0.0000  0.0000  0.0000  0.0000  0.0000  0.0000  0.0000
  o =  0.8272  v =  1.0000  0.0000  0.0000  0.0000  0.0000  0.0000  0.0000  0.0000  0.0000  0.0000      0.0000  0.0000  0.0000  0.0000  0.0000  0.0000  0.0000  0.0000  0.0000  0.0000
  o =  0.8272  v =  0.0000  0.0000  0.0000  1.0000  0.0000  0.0000  0.0000  0.0000  0.0000  0.0000      0.0000  0.0000  0.0000  0.0000  0.0000  0.0000  0.0000  0.0000  0.0000  0.0000
  o =  0.8272  v =  0.0000  0.0000  0.0000  0.0000  1.0000  0.0000  0.0000  0.0000  0.0000  0.0000      0.0000  0.0000  0.0000  0.0000  0.0000  0.0000  0.0000  0.0000  0.0000  0.0000
atom =   9  type =  2  l = 2
 
 onsite density matrix
 
spin component  1
 
  0.8272  0.0000  0.0000  0.0000  0.0000
  0.0000  0.8272  0.0000  0.0000  0.0000
  0.0000  0.0000  0.8272  0.0000  0.0000
  0.0000  0.0000  0.0000  0.8272  0.0000
  0.0000  0.0000  0.0000  0.0000  0.8272
 
spin component  2
 
  0.2256  0.0000  0.0000  0.0000  0.0000
  0.0000  0.2256  0.0000  0.0000  0.0000
  0.0000  0.0000  0.2256  0.0000  0.0000
  0.0000  0.0000  0.0000  0.2256  0.0000
  0.0000  0.0000  0.0000  0.0000  0.2256
 
 occupancies and eigenvectors
 
  o =  0.2256  v =  0.0000  0.0000  0.0000  0.0000  0.0000  0.0000  0.0000  1.0000  0.0000  0.0000      0.0000  0.0000  0.0000  0.0000  0.0000  0.0000  0.0000  0.0000  0.0000  0.0000
  o =  0.2256  v =  0.0000  0.0000  0.0000  0.0000  0.0000  1.0000  0.0000  0.0000  0.0000  0.0000      0.0000  0.0000  0.0000  0.0000  0.0000  0.0000  0.0000  0.0000  0.0000  0.0000
  o =  0.2256  v =  0.0000  0.0000  0.0000  0.0000  0.0000  0.0000  1.0000  0.0000  0.0000  0.0000      0.0000  0.0000  0.0000  0.0000  0.0000  0.0000  0.0000  0.0000  0.0000  0.0000
  o =  0.2256  v =  0.0000  0.0000  0.0000  0.0000  0.0000  0.0000  0.0000  0.0000  1.0000  0.0000      0.0000  0.0000  0.0000  0.0000  0.0000  0.0000  0.0000  0.0000  0.0000  0.0000
  o =  0.2256  v =  0.0000  0.0000  0.0000  0.0000  0.0000  0.0000  0.0000  0.0000  0.0000  1.0000      0.0000  0.0000  0.0000  0.0000  0.0000  0.0000  0.0000  0.0000  0.0000  0.0000
  o =  0.8272  v =  0.0000  1.0000  0.0000  0.0000  0.0000  0.0000  0.0000  0.0000  0.0000  0.0000      0.0000  0.0000  0.0000  0.0000  0.0000  0.0000  0.0000  0.0000  0.0000  0.0000
  o =  0.8272  v =  0.0000  0.0000  1.0000  0.0000  0.0000  0.0000  0.0000  0.0000  0.0000  0.0000      0.0000  0.0000  0.0000  0.0000  0.0000  0.0000  0.0000  0.0000  0.0000  0.0000
  o =  0.8272  v =  1.0000  0.0000  0.0000  0.0000  0.0000  0.0000  0.0000  0.0000  0.0000  0.0000      0.0000  0.0000  0.0000  0.0000  0.0000  0.0000  0.0000  0.0000  0.0000  0.0000
  o =  0.8272  v =  0.0000  0.0000  0.0000  1.0000  0.0000  0.0000  0.0000  0.0000  0.0000  0.0000      0.0000  0.0000  0.0000  0.0000  0.0000  0.0000  0.0000  0.0000  0.0000  0.0000
  o =  0.8272  v =  0.0000  0.0000  0.0000  0.0000  1.0000  0.0000  0.0000  0.0000  0.0000  0.0000      0.0000  0.0000  0.0000  0.0000  0.0000  0.0000  0.0000  0.0000  0.0000  0.0000
atom =  10  type =  3  l = 2
 
 onsite density matrix
 
spin component  1
 
  1.1008  0.0000  0.0000  0.0000  0.0000
  0.0000  1.1008  0.0000  0.0000  0.0000
  0.0000  0.0000  1.1008  0.0000  0.0000
  0.0000  0.0000  0.0000  1.1008  0.0000
  0.0000  0.0000  0.0000  0.0000  1.1008
 
spin component  2
 
  0.5927  0.0000  0.0000  0.0000  0.0000
  0.0000  0.5927  0.0000  0.0000  0.0000
  0.0000  0.0000  0.5927  0.0000  0.0000
  0.0000  0.0000  0.0000  0.5927  0.0000
  0.0000  0.0000  0.0000  0.0000  0.5927
 
 occupancies and eigenvectors
 
  o =  0.5927  v =  0.0000  0.0000  0.0000  0.0000  0.0000  1.0000  0.0000  0.0000  0.0000  0.0000      0.0000  0.0000  0.0000  0.0000  0.0000  0.0000  0.0000  0.0000  0.0000  0.0000
  o =  0.5927  v =  0.0000  0.0000  0.0000  0.0000  0.0000  0.0000  1.0000  0.0000  0.0000  0.0000      0.0000  0.0000  0.0000  0.0000  0.0000  0.0000  0.0000  0.0000  0.0000  0.0000
  o =  0.5927  v =  0.0000  0.0000  0.0000  0.0000  0.0000  0.0000  0.0000  1.0000  0.0000  0.0000      0.0000  0.0000  0.0000  0.0000  0.0000  0.0000  0.0000  0.0000  0.0000  0.0000
  o =  0.5927  v =  0.0000  0.0000  0.0000  0.0000  0.0000  0.0000  0.0000  0.0000  1.0000  0.0000      0.0000  0.0000  0.0000  0.0000  0.0000  0.0000  0.0000  0.0000  0.0000  0.0000
  o =  0.5927  v =  0.0000  0.0000  0.0000  0.0000  0.0000  0.0000  0.0000  0.0000  0.0000  1.0000      0.0000  0.0000  0.0000  0.0000  0.0000  0.0000  0.0000  0.0000  0.0000  0.0000
  o =  1.1008  v =  1.0000  0.0000  0.0000  0.0000  0.0000  0.0000  0.0000  0.0000  0.0000  0.0000      0.0000  0.0000  0.0000  0.0000  0.0000  0.0000  0.0000  0.0000  0.0000  0.0000
  o =  1.1008  v =  0.0000  1.0000  0.0000  0.0000  0.0000  0.0000  0.0000  0.0000  0.0000  0.0000      0.0000  0.0000  0.0000  0.0000  0.0000  0.0000  0.0000  0.0000  0.0000  0.0000
  o =  1.1008  v =  0.0000  0.0000  1.0000  0.0000  0.0000  0.0000  0.0000  0.0000  0.0000  0.0000      0.0000  0.0000  0.0000  0.0000  0.0000  0.0000  0.0000  0.0000  0.0000  0.0000
  o =  1.1008  v =  0.0000  0.0000  0.0000  1.0000  0.0000  0.0000  0.0000  0.0000  0.0000  0.0000      0.0000  0.0000  0.0000  0.0000  0.0000  0.0000  0.0000  0.0000  0.0000  0.0000
  o =  1.1008  v =  0.0000  0.0000  0.0000  0.0000  1.0000  0.0000  0.0000  0.0000  0.0000  0.0000      0.0000  0.0000  0.0000  0.0000  0.0000  0.0000  0.0000  0.0000  0.0000  0.0000
atom =  11  type =  3  l = 2
 
 onsite density matrix
 
spin component  1
 
  1.1008  0.0000  0.0000  0.0000  0.0000
  0.0000  1.1008  0.0000  0.0000  0.0000
  0.0000  0.0000  1.1008  0.0000  0.0000
  0.0000  0.0000  0.0000  1.1008  0.0000
  0.0000  0.0000  0.0000  0.0000  1.1008
 
spin component  2
 
  0.5927  0.0000  0.0000  0.0000  0.0000
  0.0000  0.5927  0.0000  0.0000  0.0000
  0.0000  0.0000  0.5927  0.0000  0.0000
  0.0000  0.0000  0.0000  0.5927  0.0000
  0.0000  0.0000  0.0000  0.0000  0.5927
 
 occupancies and eigenvectors
 
  o =  0.5927  v =  0.0000  0.0000  0.0000  0.0000  0.0000  1.0000  0.0000  0.0000  0.0000  0.0000      0.0000  0.0000  0.0000  0.0000  0.0000  0.0000  0.0000  0.0000  0.0000  0.0000
  o =  0.5927  v =  0.0000  0.0000  0.0000  0.0000  0.0000  0.0000  1.0000  0.0000  0.0000  0.0000      0.0000  0.0000  0.0000  0.0000  0.0000  0.0000  0.0000  0.0000  0.0000  0.0000
  o =  0.5927  v =  0.0000  0.0000  0.0000  0.0000  0.0000  0.0000  0.0000  1.0000  0.0000  0.0000      0.0000  0.0000  0.0000  0.0000  0.0000  0.0000  0.0000  0.0000  0.0000  0.0000
  o =  0.5927  v =  0.0000  0.0000  0.0000  0.0000  0.0000  0.0000  0.0000  0.0000  1.0000  0.0000      0.0000  0.0000  0.0000  0.0000  0.0000  0.0000  0.0000  0.0000  0.0000  0.0000
  o =  0.5927  v =  0.0000  0.0000  0.0000  0.0000  0.0000  0.0000  0.0000  0.0000  0.0000  1.0000      0.0000  0.0000  0.0000  0.0000  0.0000  0.0000  0.0000  0.0000  0.0000  0.0000
  o =  1.1008  v =  1.0000  0.0000  0.0000  0.0000  0.0000  0.0000  0.0000  0.0000  0.0000  0.0000      0.0000  0.0000  0.0000  0.0000  0.0000  0.0000  0.0000  0.0000  0.0000  0.0000
  o =  1.1008  v =  0.0000  1.0000  0.0000  0.0000  0.0000  0.0000  0.0000  0.0000  0.0000  0.0000      0.0000  0.0000  0.0000  0.0000  0.0000  0.0000  0.0000  0.0000  0.0000  0.0000
  o =  1.1008  v =  0.0000  0.0000  1.0000  0.0000  0.0000  0.0000  0.0000  0.0000  0.0000  0.0000      0.0000  0.0000  0.0000  0.0000  0.0000  0.0000  0.0000  0.0000  0.0000  0.0000
  o =  1.1008  v =  0.0000  0.0000  0.0000  1.0000  0.0000  0.0000  0.0000  0.0000  0.0000  0.0000      0.0000  0.0000  0.0000  0.0000  0.0000  0.0000  0.0000  0.0000  0.0000  0.0000
  o =  1.1008  v =  0.0000  0.0000  0.0000  0.0000  1.0000  0.0000  0.0000  0.0000  0.0000  0.0000      0.0000  0.0000  0.0000  0.0000  0.0000  0.0000  0.0000  0.0000  0.0000  0.0000
atom =  12  type =  3  l = 2
 
 onsite density matrix
 
spin component  1
 
  1.1008  0.0000  0.0000  0.0000  0.0000
  0.0000  1.1008  0.0000  0.0000  0.0000
  0.0000  0.0000  1.1008  0.0000  0.0000
  0.0000  0.0000  0.0000  1.1008  0.0000
  0.0000  0.0000  0.0000  0.0000  1.1008
 
spin component  2
 
  0.5927  0.0000  0.0000  0.0000  0.0000
  0.0000  0.5927  0.0000  0.0000  0.0000
  0.0000  0.0000  0.5927  0.0000  0.0000
  0.0000  0.0000  0.0000  0.5927  0.0000
  0.0000  0.0000  0.0000  0.0000  0.5927
 
 occupancies and eigenvectors
 
  o =  0.5927  v =  0.0000  0.0000  0.0000  0.0000  0.0000  1.0000  0.0000  0.0000  0.0000  0.0000      0.0000  0.0000  0.0000  0.0000  0.0000  0.0000  0.0000  0.0000  0.0000  0.0000
  o =  0.5927  v =  0.0000  0.0000  0.0000  0.0000  0.0000  0.0000  1.0000  0.0000  0.0000  0.0000      0.0000  0.0000  0.0000  0.0000  0.0000  0.0000  0.0000  0.0000  0.0000  0.0000
  o =  0.5927  v =  0.0000  0.0000  0.0000  0.0000  0.0000  0.0000  0.0000  1.0000  0.0000  0.0000      0.0000  0.0000  0.0000  0.0000  0.0000  0.0000  0.0000  0.0000  0.0000  0.0000
  o =  0.5927  v =  0.0000  0.0000  0.0000  0.0000  0.0000  0.0000  0.0000  0.0000  1.0000  0.0000      0.0000  0.0000  0.0000  0.0000  0.0000  0.0000  0.0000  0.0000  0.0000  0.0000
  o =  0.5927  v =  0.0000  0.0000  0.0000  0.0000  0.0000  0.0000  0.0000  0.0000  0.0000  1.0000      0.0000  0.0000  0.0000  0.0000  0.0000  0.0000  0.0000  0.0000  0.0000  0.0000
  o =  1.1008  v =  1.0000  0.0000  0.0000  0.0000  0.0000  0.0000  0.0000  0.0000  0.0000  0.0000      0.0000  0.0000  0.0000  0.0000  0.0000  0.0000  0.0000  0.0000  0.0000  0.0000
  o =  1.1008  v =  0.0000  1.0000  0.0000  0.0000  0.0000  0.0000  0.0000  0.0000  0.0000  0.0000      0.0000  0.0000  0.0000  0.0000  0.0000  0.0000  0.0000  0.0000  0.0000  0.0000
  o =  1.1008  v =  0.0000  0.0000  1.0000  0.0000  0.0000  0.0000  0.0000  0.0000  0.0000  0.0000      0.0000  0.0000  0.0000  0.0000  0.0000  0.0000  0.0000  0.0000  0.0000  0.0000
  o =  1.1008  v =  0.0000  0.0000  0.0000  1.0000  0.0000  0.0000  0.0000  0.0000  0.0000  0.0000      0.0000  0.0000  0.0000  0.0000  0.0000  0.0000  0.0000  0.0000  0.0000  0.0000
  o =  1.1008  v =  0.0000  0.0000  0.0000  0.0000  1.0000  0.0000  0.0000  0.0000  0.0000  0.0000      0.0000  0.0000  0.0000  0.0000  0.0000  0.0000  0.0000  0.0000  0.0000  0.0000
atom =  13  type =  4  l = 0
 
 onsite density matrix
 
spin component  1
 
  0.8190
 
spin component  2
 
  0.8190
 
 occupancies and eigenvectors
 
  o =  0.8190  v =  1.0000  0.0000      0.0000  0.0000
  o =  0.8190  v =  0.0000  1.0000      0.0000  0.0000
atom =  14  type =  4  l = 0
 
 onsite density matrix
 
spin component  1
 
  0.8190
 
spin component  2
 
  0.8190
 
 occupancies and eigenvectors
 
  o =  0.8190  v =  1.0000  0.0000      0.0000  0.0000
  o =  0.8190  v =  0.0000  1.0000      0.0000  0.0000
atom =  15  type =  4  l = 0
 
 onsite density matrix
 
spin component  1
 
  0.8190
 
spin component  2
 
  0.8190
 
 occupancies and eigenvectors
 
  o =  0.8190  v =  1.0000  0.0000      0.0000  0.0000
  o =  0.8190  v =  0.0000  1.0000      0.0000  0.0000
atom =  16  type =  4  l = 0
 
 onsite density matrix
 
spin component  1
 
  0.8190
 
spin component  2
 
  0.8190
 
 occupancies and eigenvectors
 
  o =  0.8190  v =  1.0000  0.0000      0.0000  0.0000
  o =  0.8190  v =  0.0000  1.0000      0.0000  0.0000
atom =  17  type =  4  l = 0
 
 onsite density matrix
 
spin component  1
 
  0.8190
 
spin component  2
 
  0.8190
 
 occupancies and eigenvectors
 
  o =  0.8190  v =  1.0000  0.0000      0.0000  0.0000
  o =  0.8190  v =  0.0000  1.0000      0.0000  0.0000
atom =  18  type =  4  l = 0
 
 onsite density matrix
 
spin component  1
 
  0.8190
 
spin component  2
 
  0.8190
 
 occupancies and eigenvectors
 
  o =  0.8190  v =  1.0000  0.0000      0.0000  0.0000
  o =  0.8190  v =  0.0000  1.0000      0.0000  0.0000
atom =  19  type =  4  l = 0
 
 onsite density matrix
 
spin component  1
 
  0.8190
 
spin component  2
 
  0.8190
 
 occupancies and eigenvectors
 
  o =  0.8190  v =  1.0000  0.0000      0.0000  0.0000
  o =  0.8190  v =  0.0000  1.0000      0.0000  0.0000
atom =  20  type =  4  l = 0
 
 onsite density matrix
 
spin component  1
 
  0.8190
 
spin component  2
 
  0.8190
 
 occupancies and eigenvectors
 
  o =  0.8190  v =  1.0000  0.0000      0.0000  0.0000
  o =  0.8190  v =  0.0000  1.0000      0.0000  0.0000
atom =  21  type =  4  l = 0
 
 onsite density matrix
 
spin component  1
 
  0.8190
 
spin component  2
 
  0.8190
 
 occupancies and eigenvectors
 
  o =  0.8190  v =  1.0000  0.0000      0.0000  0.0000
  o =  0.8190  v =  0.0000  1.0000      0.0000  0.0000
atom =  22  type =  4  l = 0
 
 onsite density matrix
 
spin component  1
 
  0.8190
 
spin component  2
 
  0.8190
 
 occupancies and eigenvectors
 
  o =  0.8190  v =  1.0000  0.0000      0.0000  0.0000
  o =  0.8190  v =  0.0000  1.0000      0.0000  0.0000
atom =  23  type =  4  l = 0
 
 onsite density matrix
 
spin component  1
 
  0.8190
 
spin component  2
 
  0.8190
 
 occupancies and eigenvectors
 
  o =  0.8190  v =  1.0000  0.0000      0.0000  0.0000
  o =  0.8190  v =  0.0000  1.0000      0.0000  0.0000
atom =  24  type =  4  l = 0
 
 onsite density matrix
 
spin component  1
 
  0.8190
 
spin component  2
 
  0.8190
 
 occupancies and eigenvectors
 
  o =  0.8190  v =  1.0000  0.0000      0.0000  0.0000
  o =  0.8190  v =  0.0000  1.0000      0.0000  0.0000
atom =  25  type =  4  l = 0
 
 onsite density matrix
 
spin component  1
 
  0.8190
 
spin component  2
 
  0.8190
 
 occupancies and eigenvectors
 
  o =  0.8190  v =  1.0000  0.0000      0.0000  0.0000
  o =  0.8190  v =  0.0000  1.0000      0.0000  0.0000
atom =  26  type =  4  l = 0
 
 onsite density matrix
 
spin component  1
 
  0.8190
 
spin component  2
 
  0.8190
 
 occupancies and eigenvectors
 
  o =  0.8190  v =  1.0000  0.0000      0.0000  0.0000
  o =  0.8190  v =  0.0000  1.0000      0.0000  0.0000
atom =  27  type =  4  l = 0
 
 onsite density matrix
 
spin component  1
 
  0.8190
 
spin component  2
 
  0.8190
 
 occupancies and eigenvectors
 
  o =  0.8190  v =  1.0000  0.0000      0.0000  0.0000
  o =  0.8190  v =  0.0000  1.0000      0.0000  0.0000
atom =  28  type =  4  l = 0
 
 onsite density matrix
 
spin component  1
 
  0.8190
 
spin component  2
 
  0.8190
 
 occupancies and eigenvectors
 
  o =  0.8190  v =  1.0000  0.0000      0.0000  0.0000
  o =  0.8190  v =  0.0000  1.0000      0.0000  0.0000
atom =  29  type =  4  l = 0
 
 onsite density matrix
 
spin component  1
 
  0.8190
 
spin component  2
 
  0.8190
 
 occupancies and eigenvectors
 
  o =  0.8190  v =  1.0000  0.0000      0.0000  0.0000
  o =  0.8190  v =  0.0000  1.0000      0.0000  0.0000
atom =  30  type =  4  l = 0
 
 onsite density matrix
 
spin component  1
 
  0.8190
 
spin component  2
 
  0.8190
 
 occupancies and eigenvectors
 
  o =  0.8190  v =  1.0000  0.0000      0.0000  0.0000
  o =  0.8190  v =  0.0000  1.0000      0.0000  0.0000
     EDDAV:  cpu time    4.3429: real time    4.3639
 BZINTS: Fermi energy: 31.917425;225.000000 electrons
         Band energy:3389.422107;  BLOECHL correction: -0.192699
       DOS:  cpu time    0.0219: real time    0.0225
    --------------------------------------------
      LOOP:  cpu time    4.4618: real time    4.4856

 eigenvalue-minimisations  :  7528
 total energy-change (2. order) : 0.3576210E+04  (-0.7872651E+04)
 number of electron     225.0000000 magnetization      21.0000000
 augmentation part      225.0000000 magnetization      21.0000000

 Free energy of the ion-electron system (eV)
  ---------------------------------------------------
  alpha Z        PSCENC =       985.87144858
  Ewald energy   TEWEN  =    -15551.94909377
  -Hartree energ DENC   =     -3373.10295297
  -exchange      EXHF   =         0.00000000
  -V(xc)+E(xc)   XCENC  =       754.29325793
  PAW double counting   =     14201.63522633   -14291.52419254
  entropy T*S    EENTRO =         0.00000000
  eigenvalues    EBANDS =      3389.42210729
  atomic energy  EATOM  =     17461.56381371
  Solvation  Ediel_sol  =         0.00000000
  ---------------------------------------------------
  free energy    TOTEN  =      3576.20961457 eV

  energy without entropy =     3576.20961457  energy(sigma->0) =     3576.20961457


--------------------------------------------------------------------------------------------------------




--------------------------------------- Iteration      1(   2)  ---------------------------------------


     EDDAV:  cpu time    4.4684: real time    4.4904
 BZINTS: Fermi energy: 16.604180;225.000000 electrons
         Band energy:1055.162419;  BLOECHL correction: -0.043544
       DOS:  cpu time    0.0230: real time    0.0230
    --------------------------------------------
      LOOP:  cpu time    4.4914: real time    4.5134

 eigenvalue-minimisations  :  7800
 total energy-change (2. order) :-0.2334260E+04  (-0.2101811E+04)
 number of electron     225.0000000 magnetization      21.0000000
 augmentation part      225.0000000 magnetization      21.0000000

 Free energy of the ion-electron system (eV)
  ---------------------------------------------------
  alpha Z        PSCENC =       985.87144858
  Ewald energy   TEWEN  =    -15551.94909377
  -Hartree energ DENC   =     -3373.10295297
  -exchange      EXHF   =         0.00000000
  -V(xc)+E(xc)   XCENC  =       754.29325793
  PAW double counting   =     14201.63522633   -14291.52419254
  entropy T*S    EENTRO =         0.00000000
  eigenvalues    EBANDS =      1055.16241912
  atomic energy  EATOM  =     17461.56381371
  Solvation  Ediel_sol  =         0.00000000
  ---------------------------------------------------
  free energy    TOTEN  =      1241.94992640 eV

  energy without entropy =     1241.94992640  energy(sigma->0) =     1241.94992640


--------------------------------------------------------------------------------------------------------




--------------------------------------- Iteration      1(   3)  ---------------------------------------


     EDDAV:  cpu time    4.4304: real time    4.4541
 BZINTS: Fermi energy: 12.288025;225.000000 electrons
         Band energy:  84.628763;  BLOECHL correction: -0.029535
       DOS:  cpu time    0.0229: real time    0.0229
    --------------------------------------------
      LOOP:  cpu time    4.4533: real time    4.4770

 eigenvalue-minimisations  :  7808
 total energy-change (2. order) :-0.9705337E+03  (-0.8692524E+03)
 number of electron     225.0000000 magnetization      21.0000000
 augmentation part      225.0000000 magnetization      21.0000000

 Free energy of the ion-electron system (eV)
  ---------------------------------------------------
  alpha Z        PSCENC =       985.87144858
  Ewald energy   TEWEN  =    -15551.94909377
  -Hartree energ DENC   =     -3373.10295297
  -exchange      EXHF   =         0.00000000
  -V(xc)+E(xc)   XCENC  =       754.29325793
  PAW double counting   =     14201.63522633   -14291.52419254
  entropy T*S    EENTRO =         0.00000000
  eigenvalues    EBANDS =        84.62876324
  atomic energy  EATOM  =     17461.56381371
  Solvation  Ediel_sol  =         0.00000000
  ---------------------------------------------------
  free energy    TOTEN  =       271.41627051 eV

  energy without entropy =      271.41627051  energy(sigma->0) =      271.41627051


--------------------------------------------------------------------------------------------------------




--------------------------------------- Iteration      1(   4)  ---------------------------------------


     EDDAV:  cpu time    5.9741: real time    6.0051
 BZINTS: Fermi energy: 11.616021;225.000000 electrons
         Band energy:-343.994062;  BLOECHL correction: -0.007499
       DOS:  cpu time    0.0237: real time    0.0240
    --------------------------------------------
      LOOP:  cpu time    5.9978: real time    6.0291

 eigenvalue-minimisations  : 11216
 total energy-change (2. order) :-0.4286228E+03  (-0.4037182E+03)
 number of electron     225.0000000 magnetization      21.0000000
 augmentation part      225.0000000 magnetization      21.0000000

 Free energy of the ion-electron system (eV)
  ---------------------------------------------------
  alpha Z        PSCENC =       985.87144858
  Ewald energy   TEWEN  =    -15551.94909377
  -Hartree energ DENC   =     -3373.10295297
  -exchange      EXHF   =         0.00000000
  -V(xc)+E(xc)   XCENC  =       754.29325793
  PAW double counting   =     14201.63522633   -14291.52419254
  entropy T*S    EENTRO =         0.00000000
  eigenvalues    EBANDS =      -343.99406225
  atomic energy  EATOM  =     17461.56381371
  Solvation  Ediel_sol  =         0.00000000
  ---------------------------------------------------
  free energy    TOTEN  =      -157.20655497 eV

  energy without entropy =     -157.20655497  energy(sigma->0) =     -157.20655497


--------------------------------------------------------------------------------------------------------




--------------------------------------- Iteration      1(   5)  ---------------------------------------


     EDDAV:  cpu time    6.6436: real time    6.6790
 BZINTS: Fermi energy: 11.191598;225.000000 electrons
         Band energy:-435.897128;  BLOECHL correction: -0.042390
       DOS:  cpu time    0.0217: real time    0.0217
    CHARGE:  cpu time    0.1982: real time    0.1990
    MIXING:  cpu time    0.0050: real time    0.0051
    --------------------------------------------
      LOOP:  cpu time    6.8685: real time    6.9049

 eigenvalue-minimisations  : 12750
 total energy-change (2. order) :-0.9190307E+02  (-0.8830239E+02)
 number of electron     225.0000058 magnetization      19.1040479
 augmentation part       28.5068990 magnetization      14.2875907

 Broyden mixing:
  rms(total) = 0.75010E+01    rms(broyden)= 0.75004E+01
  rms(prec ) = 0.83358E+01
  weight for this iteration     100.00

 Free energy of the ion-electron system (eV)
  ---------------------------------------------------
  alpha Z        PSCENC =       985.87144858
  Ewald energy   TEWEN  =    -15551.94909377
  -Hartree energ DENC   =     -3373.10295297
  -exchange      EXHF   =         0.00000000
  -V(xc)+E(xc)   XCENC  =       754.29325793
  PAW double counting   =     14201.63522633   -14291.52419254
  entropy T*S    EENTRO =         0.00000000
  eigenvalues    EBANDS =      -435.89712807
  atomic energy  EATOM  =     17461.56381371
  Solvation  Ediel_sol  =         0.00000000
  ---------------------------------------------------
  free energy    TOTEN  =      -249.10962080 eV

  energy without entropy =     -249.10962080  energy(sigma->0) =     -249.10962080


--------------------------------------------------------------------------------------------------------




--------------------------------------- Iteration      1(   6)  ---------------------------------------


    POTLOK:  cpu time    0.0780: real time    0.0796
    SETDIJ:  cpu time    0.0155: real time    0.0157
atom =   1  type =  1  l = 0
 
 onsite density matrix
 
spin component  1
 
  1.0562
 
spin component  2
 
  1.0567
 
 occupancies and eigenvectors
 
  o =  1.0562  v =  1.0000  0.0000      0.0000  0.0000
  o =  1.0567  v =  0.0000  1.0000      0.0000  0.0000
atom =   2  type =  1  l = 0
 
 onsite density matrix
 
spin component  1
 
  1.0560
 
spin component  2
 
  1.0562
 
 occupancies and eigenvectors
 
  o =  1.0560  v =  1.0000  0.0000      0.0000  0.0000
  o =  1.0562  v =  0.0000  1.0000      0.0000  0.0000
atom =   3  type =  1  l = 0
 
 onsite density matrix
 
spin component  1
 
  1.0562
 
spin component  2
 
  1.0567
 
 occupancies and eigenvectors
 
  o =  1.0562  v =  1.0000  0.0000      0.0000  0.0000
  o =  1.0567  v =  0.0000  1.0000      0.0000  0.0000
atom =   4  type =  1  l = 0
 
 onsite density matrix
 
spin component  1
 
  1.0562
 
spin component  2
 
  1.0567
 
 occupancies and eigenvectors
 
  o =  1.0562  v =  1.0000  0.0000      0.0000  0.0000
  o =  1.0567  v =  0.0000  1.0000      0.0000  0.0000
atom =   5  type =  1  l = 0
 
 onsite density matrix
 
spin component  1
 
  1.0560
 
spin component  2
 
  1.0562
 
 occupancies and eigenvectors
 
  o =  1.0560  v =  1.0000  0.0000      0.0000  0.0000
  o =  1.0562  v =  0.0000  1.0000      0.0000  0.0000
atom =   6  type =  1  l = 0
 
 onsite density matrix
 
spin component  1
 
  1.0562
 
spin component  2
 
  1.0567
 
 occupancies and eigenvectors
 
  o =  1.0562  v =  1.0000  0.0000      0.0000  0.0000
  o =  1.0567  v =  0.0000  1.0000      0.0000  0.0000
atom =   7  type =  2  l = 2
 
 onsite density matrix
 
spin component  1
 
  0.9519  0.0000 -0.0000 -0.0000 -0.0000
  0.0000  0.9396 -0.0000 -0.0000  0.0000
 -0.0000 -0.0000  0.3417 -0.0000 -0.0000
 -0.0000 -0.0000 -0.0000  0.9396 -0.0000
 -0.0000  0.0000 -0.0000 -0.0000  0.3411
 
spin component  2
 
  0.0414 -0.0000  0.0000 -0.0000  0.0000
 -0.0000  0.0485 -0.0000  0.0000  0.0000
  0.0000 -0.0000  0.4603 -0.0000  0.0000
 -0.0000  0.0000 -0.0000  0.0485 -0.0000
  0.0000  0.0000  0.0000 -0.0000  0.4605
 
 occupancies and eigenvectors
 
  o =  0.0414  v =  0.0000  0.0000  0.0000  0.0000  0.0000  1.0000  0.0000  0.0000  0.0000  0.0000      0.0000  0.0000  0.0000  0.0000  0.0000  0.0000  0.0000  0.0000  0.0000  0.0000
  o =  0.0485  v =  0.0000  0.0000  0.0000  0.0000  0.0000  0.0000  0.0083  0.0000 -1.0000 -0.0000      0.0000  0.0000  0.0000  0.0000  0.0000  0.0000  0.0000  0.0000  0.0000  0.0000
  o =  0.0485  v =  0.0000  0.0000  0.0000  0.0000  0.0000  0.0000 -1.0000 -0.0000 -0.0083 -0.0000      0.0000  0.0000  0.0000  0.0000  0.0000  0.0000  0.0000  0.0000  0.0000  0.0000
  o =  0.3411  v =  0.0000 -0.0000 -0.0000 -0.0000  1.0000  0.0000  0.0000  0.0000  0.0000  0.0000      0.0000  0.0000  0.0000  0.0000  0.0000  0.0000  0.0000  0.0000  0.0000  0.0000
  o =  0.3417  v =  0.0000 -0.0000 -1.0000  0.0000 -0.0000  0.0000  0.0000  0.0000  0.0000  0.0000      0.0000  0.0000  0.0000  0.0000  0.0000  0.0000  0.0000  0.0000  0.0000  0.0000
  o =  0.4603  v =  0.0000  0.0000  0.0000  0.0000  0.0000  0.0000  0.0000 -1.0000  0.0000  0.0000      0.0000  0.0000  0.0000  0.0000  0.0000  0.0000  0.0000  0.0000  0.0000  0.0000
  o =  0.4605  v =  0.0000  0.0000  0.0000  0.0000  0.0000  0.0000 -0.0000  0.0000  0.0000  1.0000      0.0000  0.0000  0.0000  0.0000  0.0000  0.0000  0.0000  0.0000  0.0000  0.0000
[...]
 -0.000  -0.000  -0.000  -0.000   0.000  -0.000  -0.001   0.000   0.001  -0.000   0.000  -0.000   0.000  -0.000   0.000  -0.000
 -0.000   0.000   0.000  -0.000   0.000   0.000   0.000   0.000   0.000  -0.001  -0.000  -0.000   0.000   0.000   0.000   0.000
 -0.000   0.000   0.000  -0.000  -0.000  -0.000   0.000   0.000  -0.000  -0.000   0.000   0.000   0.001   0.000   0.000  -0.000
  0.000  -0.000   0.000  -0.000  -0.000   0.000   0.000  -0.001   0.000   0.001  -0.000   0.000   0.000   0.000  -0.000  -0.000
 -0.000  -0.000   0.000   0.000   0.000  -0.001   0.000   0.000   0.000   0.001   0.000   0.000   0.000   0.000  -0.000  -0.000
 -0.000   0.014  -0.000  -0.000   0.000   0.000  -0.000   0.000   0.000   0.000   0.000   0.000   0.000  -0.000   0.000  -0.000
  0.000  -0.000   0.000  -0.000   0.000  -0.001  -0.000  -0.000   0.000   0.000   0.000   0.000   0.000   0.000  -0.000  -0.000
  0.000   0.000  -0.000  -0.000   0.000  -0.000   0.001  -0.000  -0.000  -0.000  -0.001   0.000  -0.000   0.000   0.000   0.000
 -0.000  -0.000   0.000  -0.000   0.000  -0.000  -0.000  -0.001   0.000   0.000  -0.000   0.000   0.000   0.000  -0.000   0.000
 -0.000   0.000   0.000  -0.000  -0.000  -0.000   0.000   0.000  -0.000  -0.000   0.000   0.000  -0.001   0.000   0.000   0.000
  0.000   0.000  -0.000   0.000  -0.000  -0.000  -0.000   0.001   0.000  -0.000   0.000  -0.001   0.000   0.000   0.000  -0.000


------------------------ aborting loop because EDIFF is reached ----------------------------------------


 


 total charge     
 
# of ion       s       p       d       f       tot
--------------------------------------------------
    1        1.999   5.699   0.488   0.191   8.378
    2        1.999   5.697   0.491   0.186   8.374
    3        1.999   5.699   0.488   0.191   8.378
    4        1.999   5.699   0.490   0.190   8.378
    5        1.998   5.700   0.481   0.192   8.372
    6        1.999   5.699   0.490   0.190   8.379
    7        0.361   0.585   4.849   0.000   5.794
    8        0.361   0.585   4.861   0.000   5.808
    9        0.361   0.585   4.861   0.000   5.807
   10        0.385   0.552   8.324   0.000   9.261
   11        0.380   0.547   8.320   0.000   9.247
   12        0.385   0.552   8.324   0.000   9.261
   13        1.560   3.470   0.000   0.000   5.030
   14        1.560   3.460   0.000   0.000   5.020
   15        1.562   3.459   0.000   0.000   5.020
   16        1.554   3.458   0.000   0.000   5.011
   17        1.562   3.459   0.000   0.000   5.020
   18        1.560   3.460   0.000   0.000   5.020
   19        1.562   3.463   0.000   0.000   5.025
   20        1.560   3.464   0.000   0.000   5.024
   21        1.562   3.463   0.000   0.000   5.025
   22        1.562   3.463   0.000   0.000   5.025
   23        1.560   3.464   0.000   0.000   5.024
   24        1.562   3.463   0.000   0.000   5.025
   25        1.561   3.458   0.000   0.000   5.019
   26        1.560   3.456   0.000   0.000   5.015
   27        1.561   3.458   0.000   0.000   5.019
   28        1.561   3.458   0.000   0.000   5.019
   29        1.560   3.456   0.000   0.000   5.015
   30        1.561   3.458   0.000   0.000   5.019
--------------------------------------------------
tot         42.315  99.886  42.470   1.142 185.812

 


 magnetization (x)
 
# of ion       s       p       d       f       tot
--------------------------------------------------
    1        0.001   0.001   0.009   0.003   0.015
    2        0.001   0.001   0.006   0.002   0.011
    3        0.001   0.001   0.009   0.003   0.015
    4        0.001   0.001   0.009   0.003   0.015
    5        0.001   0.000   0.007   0.003   0.010
    6        0.001   0.001   0.009   0.003   0.014
    7        0.025   0.039   3.154   0.000   3.217
    8        0.024   0.035   3.166   0.000   3.225
    9        0.024   0.035   3.166   0.000   3.225
   10        0.006  -0.001   1.705   0.000   1.711
   11        0.001  -0.009   1.688   0.000   1.680
   12        0.006  -0.001   1.705   0.000   1.711
   13        0.001  -0.014   0.000   0.000  -0.012
   14        0.004  -0.008   0.000   0.000  -0.004
   15        0.004  -0.034   0.000   0.000  -0.030
   16        0.006   0.034   0.000   0.000   0.040
   17        0.004  -0.034   0.000   0.000  -0.030
   18        0.004  -0.008   0.000   0.000  -0.004
   19        0.006  -0.007   0.000   0.000  -0.001
   20        0.005  -0.010   0.000   0.000  -0.005
   21        0.006  -0.007   0.000   0.000  -0.001
   22        0.006  -0.007   0.000   0.000  -0.001
   23        0.005  -0.010   0.000   0.000  -0.005
   24        0.006  -0.007   0.000   0.000  -0.001
   25        0.004  -0.002   0.000   0.000   0.002
   26        0.003  -0.007   0.000   0.000  -0.004
   27        0.004  -0.002   0.000   0.000   0.002
   28        0.004  -0.002   0.000   0.000   0.002
   29        0.003  -0.007   0.000   0.000  -0.004
   30        0.004  -0.002   0.000   0.000   0.002
--------------------------------------------------
tot          0.169  -0.030  14.633   0.018  14.790

 
    CHARGE:  cpu time    0.1922: real time    0.1929
    FORLOC:  cpu time    0.0110: real time    0.0110
    FORNL :  cpu time    1.2341: real time    1.2388
    STRESS:  cpu time    3.6772: real time    3.6937
    FORCOR:  cpu time    0.0891: real time    0.0894
    FORHAR:  cpu time    0.0188: real time    0.0189
    MIXING:  cpu time    0.0050: real time    0.0050
    OFIELD:  cpu time    0.0001: real time    0.0003

  FORCE on cell =-STRESS in cart. coord.  units (eV):
  Direction    XX          YY          ZZ          XY          YZ          ZX
  --------------------------------------------------------------------------------------
  Alpha Z   985.87145   985.87145   985.87145
  Ewald   -5190.19754 -5190.19754 -5171.60914     0.00000     0.00000    -0.00000
  Hartree  1141.14046  1141.14046  1157.98428     0.00000    -0.00000     0.00000
  E(xc)   -1046.26462 -1046.26462 -1046.03404    -0.00000     0.00000    -0.00000
  Local    -644.76971  -644.76971  -678.86131    -0.00000    -0.00000    -0.00000
  n-local   415.54420   415.16176   415.91290    -1.82168     0.00106    -0.00155
  augment   490.43096   490.43096   490.44854    -0.00000    -0.00000    -0.00000
  Kinetic  3847.02902  3849.69719  3846.04950   -13.59400    -0.00042     0.00209
  Fock        0.00000     0.00000     0.00000     0.00000     0.00000     0.00000
  -------------------------------------------------------------------------------------
  Total      -0.07292    -0.07292    -0.23783     0.00000     0.00000     0.00000
  in kB      -0.33354    -0.33354    -1.08782     0.00000     0.00000     0.00000
  external pressure =       -0.58 kB  Pullay stress =        0.00 kB


 VOLUME and BASIS-vectors are now :
 -----------------------------------------------------------------------------
  energy-cutoff  :      520.00
  volume of cell :      350.28
      direct lattice vectors                 reciprocal lattice vectors
     3.879777144  3.879777144  0.000000000     0.128873381  0.128873381  0.000000000
     3.879777144 -3.879777144  0.000000000     0.128873381 -0.128873381  0.000000000
     0.000000000  0.000000000-11.635146551     0.000000000  0.000000000 -0.085946489

  length of vectors
     5.486833456  5.486833456 11.635146551     0.182254484  0.182254484  0.085946489


 FORCES acting on ions
    electron-ion (+dipol)            ewald-force                    non-local-force                 convergence-correction
 -----------------------------------------------------------------------------------------------
   0.545E-12 -.573E-12 -.383E+01   0.191E-13 0.149E-13 0.373E+01   0.678E-20 -.339E-19 0.916E-01   0.205E-13 -.517E-14 0.730E-04
   -.189E-13 -.829E-14 0.340E-03   0.301E-13 -.142E-13 0.315E-03   -.136E-19 0.678E-19 -.108E-18   0.413E-14 0.166E-13 -.979E-05
   -.617E-13 0.177E-13 0.383E+01   -.642E-13 -.213E-13 -.373E+01   -.813E-19 -.542E-19 -.916E-01   -.137E-14 -.486E-15 -.631E-04
   0.890E-13 -.120E-12 -.383E+01   -.119E-13 0.286E-13 0.373E+01   -.542E-19 -.542E-19 0.916E-01   0.502E-14 0.253E-13 0.730E-04
   0.123E-11 -.125E-11 0.340E-03   -.320E-13 0.000E+00 0.315E-03   0.000E+00 0.108E-18 0.108E-18   0.233E-13 0.524E-14 -.979E-05
   0.317E-12 -.327E-12 0.383E+01   -.169E-13 -.213E-13 -.373E+01   -.542E-19 0.542E-19 -.916E-01   0.335E-13 0.201E-13 -.631E-04
   0.113E-12 0.117E-12 -.108E-03   -.613E-13 -.218E-14 0.375E-03   0.000E+00 0.424E-21 -.424E-21   -.199E-13 -.131E-13 0.191E-05
   0.145E-13 -.151E-13 0.190E+02   -.311E-13 -.354E-13 -.186E+02   0.212E-21 0.424E-21 -.456E+00   -.207E-15 -.245E-13 -.808E-03
   0.175E-12 -.174E-12 -.190E+02   -.284E-13 -.556E-13 0.186E+02   -.212E-21 -.127E-20 0.456E+00   -.323E-14 0.554E-14 0.807E-03
   0.137E-11 0.903E-13 -.149E+02   0.977E-14 0.697E-13 0.127E+02   -.148E-20 0.106E-20 0.227E+01   -.292E-13 0.433E-13 0.225E-02
   0.890E-12 -.868E-12 -.140E-03   0.169E-13 -.702E-13 0.494E-03   0.000E+00 0.000E+00 0.000E+00   -.982E-14 0.250E-13 0.256E-05
   0.426E-12 0.979E-12 0.149E+02   -.284E-13 -.310E-15 -.127E+02   0.135E-20 0.204E-20 -.227E+01   -.286E-13 -.634E-14 -.226E-02
   0.161E-12 -.146E-12 0.255E-03   0.213E-13 0.135E-13 0.346E-03   -.678E-20 0.000E+00 0.678E-20   -.583E-14 -.294E-13 -.613E-05
   -.224E-12 0.599E-12 -.279E+02   -.921E-14 0.138E-13 0.226E+02   0.000E+00 0.000E+00 0.521E+01   0.375E-15 -.810E-14 0.395E-02
   0.277E-12 -.277E-12 -.246E+02   0.284E-13 0.284E-13 0.186E+02   0.000E+00 0.000E+00 0.602E+01   0.138E-13 0.342E-14 0.554E-02
   0.174E-12 0.176E-12 0.165E-03   0.107E-13 0.691E-14 0.425E-03   -.169E-20 -.508E-20 -.169E-20   -.359E-14 -.329E-14 -.611E-05
   0.196E-12 -.193E-12 0.246E+02   0.292E-13 0.125E-13 -.186E+02   0.271E-19 0.000E+00 -.602E+01   -.808E-14 -.246E-13 -.554E-02
   0.434E-12 -.843E-13 0.279E+02   0.284E-13 0.479E-14 -.226E+02   -.339E-20 0.339E-20 -.521E+01   -.263E-13 -.352E-13 -.395E-02
   0.526E-07 -.273E+02 0.294E+01   -.527E-15 0.216E+02 -.341E+01   0.000E+00 0.564E+01 0.500E+00   -.484E-13 0.101E-01 0.572E-03
   -.949E-12 -.297E+02 0.307E-03   -.220E-13 0.248E+02 0.212E-03   0.000E+00 0.480E+01 0.339E-20   0.365E-13 0.151E-02 0.153E-05
   -.525E-07 -.273E+02 -.295E+01   0.187E-13 0.216E+02 0.341E+01   0.000E+00 0.564E+01 -.500E+00   -.457E-13 0.101E-01 -.574E-03
   0.526E-07 0.273E+02 0.294E+01   0.325E-14 -.216E+02 -.341E+01   0.000E+00 -.564E+01 0.500E+00   0.201E-13 -.101E-01 0.572E-03
   -.187E-11 0.297E+02 0.307E-03   0.306E-13 -.248E+02 0.212E-03   0.000E+00 -.480E+01 0.203E-19   -.701E-13 -.151E-02 0.153E-05
   -.526E-07 0.273E+02 -.295E+01   0.409E-13 -.216E+02 0.341E+01   0.000E+00 -.564E+01 -.500E+00   0.146E-13 -.101E-01 -.574E-03
   -.273E+02 0.767E-12 0.294E+01   0.216E+02 -.224E-13 -.341E+01   0.564E+01 0.000E+00 0.500E+00   0.101E-01 -.442E-13 0.572E-03
   -.297E+02 -.567E-12 0.305E-03   0.248E+02 0.154E-13 0.212E-03   0.480E+01 0.000E+00 0.136E-19   0.151E-02 0.349E-13 0.153E-05
   -.273E+02 0.106E-11 -.295E+01   0.216E+02 0.956E-14 0.341E+01   0.564E+01 0.000E+00 -.500E+00   0.101E-01 -.281E-13 -.574E-03
   0.273E+02 -.199E-12 0.294E+01   -.216E+02 -.143E-13 -.341E+01   -.564E+01 0.000E+00 0.500E+00   -.101E-01 -.458E-14 0.572E-03
   0.297E+02 -.556E-12 0.309E-03   -.248E+02 -.210E-13 0.212E-03   -.480E+01 0.000E+00 -.169E-20   -.151E-02 -.817E-13 0.153E-05
   0.273E+02 -.190E-12 -.295E+01   -.216E+02 0.184E-13 0.341E+01   -.564E+01 0.000E+00 -.500E+00   -.101E-01 -.187E-13 -.574E-03
 -----------------------------------------------------------------------------------------------
   0.850E-11 -.759E-12 -.264E-02   0.142E-13 -.251E-13 0.426E-13   -.178E-14 0.888E-15 0.555E-16   -.805E-13 -.259E-12 0.206E-06
 
 
 POSITION                                       TOTAL-FORCE (eV/Angst)
 -----------------------------------------------------------------------------------
      3.87978      0.00000     -3.88513        -0.000000     -0.000000     -0.003097
      0.00000      0.00000     -7.75676        -0.000000     -0.000000     -0.000000
      3.87978      0.00000    -11.62839        -0.000000     -0.000000      0.003097
      0.00000      0.00000     -3.88513        -0.000000     -0.000000     -0.003097
      3.87978      0.00000     -7.75676        -0.000000     -0.000000     -0.000000
      0.00000      0.00000    -11.62839        -0.000000     -0.000000      0.003097
      1.93989      1.93989     -1.93919        -0.000000     -0.000000     -0.000000
      1.93989     -1.93989     -5.79967        -0.000000     -0.000000      0.016863
      1.93989     -1.93989     -9.71386        -0.000000     -0.000000     -0.016863
      1.93989      1.93989     -5.82302        -0.000000     -0.000000      0.032043
      1.93989     -1.93989     -1.93919        -0.000000     -0.000000     -0.000000
      1.93989      1.93989     -9.69051        -0.000000     -0.000000     -0.032043
      1.93989     -1.93989     -7.75676        -0.000000     -0.000000     -0.000000
      1.93989      1.93989     -3.83980        -0.000000     -0.000000     -0.001318
      1.93989     -1.93989    -11.59754        -0.000000     -0.000000     -0.005622
      1.93989      1.93989     -7.75676        -0.000000     -0.000000     -0.000000
      1.93989     -1.93989     -3.91598        -0.000000     -0.000000      0.005622
      1.93989      1.93989     -0.03858        -0.000000     -0.000000      0.001318
      5.81967      0.04709     -5.81089        -0.000000     -0.008117      0.030949
      1.93989      0.03562     -1.93919        -0.000000     -0.004697     -0.000000
      5.81967      0.04709     -9.70264        -0.000000     -0.008117     -0.030949
      1.93989     -0.04709     -5.81089        -0.000000      0.008117      0.030949
      5.81967     -0.03562     -1.93919        -0.000000      0.004697     -0.000000
      1.93989     -0.04709     -9.70264        -0.000000      0.008117     -0.030949
      3.92687      1.93989     -5.81089        -0.008117     -0.000000      0.030949
      3.91540     -1.93989     -1.93919        -0.004697     -0.000000     -0.000000
      3.92687      1.93989     -9.70264        -0.008117     -0.000000     -0.030949
      3.83269     -1.93989     -5.81089         0.008117     -0.000000      0.030949
      3.84415      1.93989     -1.93919         0.004697     -0.000000     -0.000000
      3.83269     -1.93989     -9.70264         0.008117     -0.000000     -0.030949
 -----------------------------------------------------------------------------------
    total drift:                                0.000000     -0.000000     -0.002636


--------------------------------------------------------------------------------------------------------



  FREE ENERGIE OF THE ION-ELECTRON SYSTEM (eV)
  ---------------------------------------------------
  free  energy   TOTEN  =      -221.16616419 eV

  energy  without entropy=     -221.16616419  energy(sigma->0) =     -221.16616419
 


--------------------------------------------------------------------------------------------------------


    POTLOK:  cpu time    0.0930: real time    0.0932


--------------------------------------------------------------------------------------------------------


     LOOP+:  cpu time  103.9121: real time  104.4524
    4ORBIT:  cpu time    0.0000: real time    0.0000
 


 total charge     
 
# of ion       s       p       d       f       tot
--------------------------------------------------
    1        1.999   5.699   0.488   0.191   8.378
    2        1.999   5.697   0.491   0.186   8.374
    3        1.999   5.699   0.488   0.191   8.378
    4        1.999   5.699   0.490   0.190   8.378
    5        1.998   5.700   0.481   0.192   8.372
    6        1.999   5.699   0.490   0.190   8.379
    7        0.361   0.585   4.849   0.000   5.794
    8        0.361   0.585   4.861   0.000   5.808
    9        0.361   0.585   4.861   0.000   5.807
   10        0.385   0.552   8.324   0.000   9.261
   11        0.380   0.547   8.320   0.000   9.247
   12        0.385   0.552   8.324   0.000   9.261
   13        1.560   3.470   0.000   0.000   5.030
   14        1.560   3.460   0.000   0.000   5.020
   15        1.562   3.459   0.000   0.000   5.020
   16        1.554   3.458   0.000   0.000   5.011
   17        1.562   3.459   0.000   0.000   5.020
   18        1.560   3.460   0.000   0.000   5.020
   19        1.562   3.463   0.000   0.000   5.025
   20        1.560   3.464   0.000   0.000   5.024
   21        1.562   3.463   0.000   0.000   5.025
   22        1.562   3.463   0.000   0.000   5.025
   23        1.560   3.464   0.000   0.000   5.024
   24        1.562   3.463   0.000   0.000   5.025
   25        1.561   3.458   0.000   0.000   5.019
   26        1.560   3.456   0.000   0.000   5.015
   27        1.561   3.458   0.000   0.000   5.019
   28        1.561   3.458   0.000   0.000   5.019
   29        1.560   3.456   0.000   0.000   5.015
   30        1.561   3.458   0.000   0.000   5.019
--------------------------------------------------
tot         42.315  99.886  42.470   1.142 185.812

 


 magnetization (x)
 
# of ion       s       p       d       f       tot
--------------------------------------------------
    1        0.001   0.001   0.009   0.003   0.015
    2        0.001   0.001   0.006   0.002   0.011
    3        0.001   0.001   0.009   0.003   0.015
    4        0.001   0.001   0.009   0.003   0.015
    5        0.001   0.000   0.007   0.003   0.010
    6        0.001   0.001   0.009   0.003   0.014
    7        0.025   0.039   3.154   0.000   3.217
    8        0.024   0.035   3.166   0.000   3.225
    9        0.024   0.035   3.166   0.000   3.225
   10        0.006  -0.001   1.705   0.000   1.711
   11        0.001  -0.009   1.688   0.000   1.680
   12        0.006  -0.001   1.705   0.000   1.711
   13        0.001  -0.014   0.000   0.000  -0.012
   14        0.004  -0.008   0.000   0.000  -0.004
   15        0.004  -0.034   0.000   0.000  -0.030
   16        0.006   0.034   0.000   0.000   0.040
   17        0.004  -0.034   0.000   0.000  -0.030
   18        0.004  -0.008   0.000   0.000  -0.004
   19        0.006  -0.007   0.000   0.000  -0.001
   20        0.005  -0.010   0.000   0.000  -0.005
   21        0.006  -0.007   0.000   0.000  -0.001
   22        0.006  -0.007   0.000   0.000  -0.001
   23        0.005  -0.010   0.000   0.000  -0.005
   24        0.006  -0.007   0.000   0.000  -0.001
   25        0.004  -0.002   0.000   0.000   0.002
   26        0.003  -0.007   0.000   0.000  -0.004
   27        0.004  -0.002   0.000   0.000   0.002
   28        0.004  -0.002   0.000   0.000   0.002
   29        0.003  -0.007   0.000   0.000  -0.004
   30        0.004  -0.002   0.000   0.000   0.002
--------------------------------------------------
tot          0.169  -0.030  14.633   0.018  14.790

 
 BZINTS: Fermi energy:  7.696923;225.000000 electrons
         Band energy:-325.132768;  BLOECHL correction:  0.000000

 total amount of memory used by VASP MPI-rank0    77408. kBytes
=======================================================================

   base      :      30000. kBytes
   nonlr-proj:       7153. kBytes
   fftplans  :       3030. kBytes
   grid      :       8843. kBytes
   one-center:        294. kBytes
   wavefun   :      28088. kBytes
 
  
  
 General timing and accounting informations for this job:
 ========================================================
  
                  Total CPU time used (sec):      112.944
                            User time (sec):      110.049
                          System time (sec):        2.895
                         Elapsed time (sec):      113.631
  
                   Maximum memory used (kb):      130480.
                   Average memory used (kb):           0.
  
                          Minor page faults:        44039
                          Major page faults:            0
                 Voluntary context switches:         1482
