 vasp.5.4.4.18Apr17-6-g9f103f2a35 (build Oct 03 2018 13:58:34) complex          
  
 executed on             LinuxIFC date 2019.06.04  01:23:53
 running on   40 total cores
 distrk:  each k-point on   20 cores,    2 groups
 distr:  one band on NCORES_PER_BAND=  10 cores,    2 groups


--------------------------------------------------------------------------------------------------------


 INCAR:
 POTCAR:    PAW_PBE La 06Sep2000                  
 POTCAR:    PAW_PBE Mn 06Sep2000                  
 POTCAR:    PAW_PBE Ni 02Aug2007                  
 POTCAR:    PAW_PBE O 08Apr2002                   

 ----------------------------------------------------------------------------- 
|                                                                             |
|           W    W    AA    RRRRR   N    N  II  N    N   GGGG   !!!           |
|           W    W   A  A   R    R  NN   N  II  NN   N  G    G  !!!           |
|           W    W  A    A  R    R  N N  N  II  N N  N  G       !!!           |
|           W WW W  AAAAAA  RRRRR   N  N N  II  N  N N  G  GGG   !            |
|           WW  WW  A    A  R   R   N   NN  II  N   NN  G    G                |
|           W    W  A    A  R    R  N    N  II  N    N   GGGG   !!!           |
|                                                                             |
|      You have enabled k-point parallelism (KPAR>1).                         |
|      This developmental code was originally  written by Paul Kent at ORNL,  |
|      and carefully double checked in Vienna.                                |
|      GW as well as linear response parallelism added by Martijn Marsman     |
|      and Georg Kresse.                                                      |
|      Carefully verify results versus KPAR=1.                                |
|      Report problems to Paul Kent and Vienna.                               |
|                                                                             |
 ----------------------------------------------------------------------------- 

 POTCAR:    PAW_PBE La 06Sep2000                  
   VRHFIN =La : [core=Kr4d]                                                     
   LEXCH  = PE                                                                  
   EATOM  =   865.9763 eV,   63.6475 Ry                                         
                                                                                
   TITEL  = PAW_PBE La 06Sep2000                                                
   LULTRA =        F    use ultrasoft PP ?                                      
   IUNSCR =        1    unscreen: 0-lin 1-nonlin 2-no                           
   RPACOR =    2.300    partial core radius                                     
   POMASS =  138.900; ZVAL   =   11.000    mass and valenz                      
   RCORE  =    2.800    outmost cutoff radius                                   
   RWIGS  =    2.900; RWIGS  =    1.535    wigner-seitz radius (au A)           
   ENMAX  =  219.292; ENMIN  =  164.469 eV                                      
   RCLOC  =    1.601    cutoff for local pot                                    
   LCOR   =        T    correct aug charges                                     
   LPAW   =        T    paw PP                                                  
   EAUG   =  583.575                                                            
   DEXC   =    0.000                                                            
   RMAX   =    2.853    core radius for proj-oper                               
   RAUG   =    1.300    factor for augmentation sphere                          
   RDEP   =    2.802    radius for radial grids                                 
   RDEPT  =    2.156    core radius for aug-charge                              
                                                                                
   Atomic configuration                                                         
   14 entries                                                                   
     n  l   j            E        occ.                                          
     1  0  0.50    -38741.0879   2.0000                                         
     2  0  0.50     -6166.6801   2.0000                                         
     2  1  1.50     -5526.1593   6.0000                                         
     3  0  0.50     -1319.0200   2.0000                                         
     3  1  1.50     -1114.5963   6.0000                                         
     3  2  2.50      -821.1793  10.0000                                         
     4  0  0.50      -266.3851   2.0000                                         
     4  1  1.50      -199.9276   6.0000                                         
     4  2  2.50      -103.8239  10.0000                                         
     5  0  0.50       -38.9172   2.0000                                         
     6  0  0.50        -3.6792   2.0000                                         
     5  1  1.50       -22.3948   6.0000                                         
     5  2  2.50        -3.0911   0.9999                                         
     4  3  2.50        -4.3603   0.0001                                         
   Description                                                                  
     l       E           TYP  RCUT    TYP  RCUT                                 
     0    -38.9171645     23  2.800                                             
     0     -3.6792381     23  2.800                                             
     1    -22.3948300     23  2.500                                             
     1     27.2116520     23  2.500                                             
     2     -3.0910934     23  2.500                                             
     2      1.0119135     23  2.500                                             
     3     -4.3602911     23  2.800                                             
     3     -5.7208737     23  2.800                                             
  local pseudopotential read in
  partial core-charges read in
  partial kinetic energy density read in
  atomic valenz-charges read in
  non local Contribution for L=           0  read in
    real space projection operators read in
  non local Contribution for L=           0  read in
    real space projection operators read in
  non local Contribution for L=           1  read in
    real space projection operators read in
  non local Contribution for L=           1  read in
    real space projection operators read in
  non local Contribution for L=           2  read in
    real space projection operators read in
  non local Contribution for L=           2  read in
    real space projection operators read in
  non local Contribution for L=           3  read in
    real space projection operators read in
  non local Contribution for L=           3  read in
    real space projection operators read in
    PAW grid and wavefunctions read in
 
   number of l-projection  operators is LMAX  =           8
   number of lm-projection operators is LMMAX =          32
 
 POTCAR:    PAW_PBE Mn 06Sep2000                  
   VRHFIN =Mn: d6 s1                                                            
   LEXCH  = PE                                                                  
   EATOM  =   416.7541 eV,   30.6306 Ry                                         
                                                                                
   TITEL  = PAW_PBE Mn 06Sep2000                                                
   LULTRA =        F    use ultrasoft PP ?                                      
   IUNSCR =        1    unscreen: 0-lin 1-nonlin 2-no                           
   RPACOR =    2.000    partial core radius                                     
   POMASS =   54.938; ZVAL   =    7.000    mass and valenz                      
   RCORE  =    2.300    outmost cutoff radius                                   
   RWIGS  =    2.500; RWIGS  =    1.323    wigner-seitz radius (au A)           
   ENMAX  =  269.864; ENMIN  =  202.398 eV                                      
   RCLOC  =    1.725    cutoff for local pot                                    
   LCOR   =        T    correct aug charges                                     
   LPAW   =        T    paw PP                                                  
   EAUG   =  500.711                                                            
   DEXC   =    0.000                                                            
   RMAX   =    2.343    core radius for proj-oper                               
   RAUG   =    1.300    factor for augmentation sphere                          
   RDEP   =    2.338    radius for radial grids                                 
   RDEPT  =    1.911    core radius for aug-charge                              
                                                                                
   Atomic configuration                                                         
    9 entries                                                                   
     n  l   j            E        occ.                                          
     1  0  0.50     -6424.8288   2.0000                                         
     2  0  0.50      -739.1154   2.0000                                         
     2  1  1.50      -625.3949   6.0000                                         
     3  0  0.50       -81.6100   2.0000                                         
     3  1  1.50       -50.4667   6.0000                                         
     3  2  2.50        -3.3745   6.0000                                         
     4  0  0.50        -4.1331   1.0000                                         
     4  1  0.50        -4.0817   0.0000                                         
     4  3  2.50        -1.3606   0.0000                                         
   Description                                                                  
     l       E           TYP  RCUT    TYP  RCUT                                 
     2     -3.3744664     23  2.300                                             
     2     -4.7350490     23  2.300                                             
     0     -4.1331408     23  2.300                                             
     0      7.6656614     23  2.300                                             
     1     -2.7211652     23  2.300                                             
     1     20.4087390     23  2.300                                             
  local pseudopotential read in
  partial core-charges read in
  partial kinetic energy density read in
  atomic valenz-charges read in
  non local Contribution for L=           2  read in
    real space projection operators read in
  non local Contribution for L=           2  read in
    real space projection operators read in
  non local Contribution for L=           0  read in
    real space projection operators read in
  non local Contribution for L=           0  read in
    real space projection operators read in
  non local Contribution for L=           1  read in
    real space projection operators read in
  non local Contribution for L=           1  read in
    real space projection operators read in
    PAW grid and wavefunctions read in
 
   number of l-projection  operators is LMAX  =           6
   number of lm-projection operators is LMMAX =          18
 
 POTCAR:    PAW_PBE Ni 02Aug2007                  
   VRHFIN =Ni:                                                                  
   LEXCH  = PE                                                                  
   EATOM  =  1077.6739 eV,   79.2068 Ry                                         
                                                                                
   TITEL  = PAW_PBE Ni 02Aug2007                                                
   LULTRA =        F    use ultrasoft PP ?                                      
   IUNSCR =        1    unscreen: 0-lin 1-nonlin 2-no                           
   RPACOR =    2.000    partial core radius                                     
   POMASS =   58.690; ZVAL   =   10.000    mass and valenz                      
   RCORE  =    2.300    outmost cutoff radius                                   
   RWIGS  =    2.430; RWIGS  =    1.286    wigner-seitz radius (au A)           
   ENMAX  =  269.532; ENMIN  =  202.149 eV                                      
   RCLOC  =    1.201    cutoff for local pot                                    
   LCOR   =        T    correct aug charges                                     
   LPAW   =        T    paw PP                                                  
   EAUG   =  544.565                                                            
   DEXC   =    0.000                                                            
   RMAX   =    2.357    core radius for proj-oper                               
   RAUG   =    1.300    factor for augmentation sphere                          
   RDEP   =    2.390    radius for radial grids                                 
   RDEPT  =    1.838    core radius for aug-charge                              
                                                                                
   Atomic configuration                                                         
    9 entries                                                                   
     n  l   j            E        occ.                                          
     1  0  0.50     -8206.4253   2.0000                                         
     2  0  0.50      -976.1748   2.0000                                         
     2  1  1.50      -839.0571   6.0000                                         
     3  0  0.50      -105.9991   2.0000                                         
     3  1  1.50       -66.4603   6.0000                                         
     3  2  2.50        -4.6458   9.0000                                         
     4  0  0.50        -4.4926   1.0000                                         
     4  1  1.50        -4.0817   0.0000                                         
     4  3  2.50        -1.3606   0.0000                                         
   Description                                                                  
     l       E           TYP  RCUT    TYP  RCUT                                 
     2     -4.6457903     23  2.300                                             
     2     -6.0063729     23  2.300                                             
     0     -4.4925590     23  2.300                                             
     0      5.0102601     23  2.300                                             
     1     -2.7211652     23  2.300                                             
     1     16.5183231     23  2.300                                             
  local pseudopotential read in
  partial core-charges read in
  partial kinetic energy density read in
  atomic valenz-charges read in
  non local Contribution for L=           2  read in
    real space projection operators read in
  non local Contribution for L=           2  read in
    real space projection operators read in
  non local Contribution for L=           0  read in
    real space projection operators read in
  non local Contribution for L=           0  read in
    real space projection operators read in
  non local Contribution for L=           1  read in
    real space projection operators read in
  non local Contribution for L=           1  read in
    real space projection operators read in
    PAW grid and wavefunctions read in
 
   number of l-projection  operators is LMAX  =           6
   number of lm-projection operators is LMMAX =          18
 
 POTCAR:    PAW_PBE O 08Apr2002                   
   VRHFIN =O: s2p4                                                              
   LEXCH  = PE                                                                  
   EATOM  =   432.3788 eV,   31.7789 Ry                                         
                                                                                
   TITEL  = PAW_PBE O 08Apr2002                                                 
   LULTRA =        F    use ultrasoft PP ?                                      
   IUNSCR =        1    unscreen: 0-lin 1-nonlin 2-no                           
   RPACOR =    1.200    partial core radius                                     
   POMASS =   16.000; ZVAL   =    6.000    mass and valenz                      
   RCORE  =    1.520    outmost cutoff radius                                   
   RWIGS  =    1.550; RWIGS  =    0.820    wigner-seitz radius (au A)           
   ENMAX  =  400.000; ENMIN  =  300.000 eV                                      
   ICORE  =        2    local potential                                         
   LCOR   =        T    correct aug charges                                     
   LPAW   =        T    paw PP                                                  
   EAUG   =  605.392                                                            
   DEXC   =    0.000                                                            
   RMAX   =    1.553    core radius for proj-oper                               
   RAUG   =    1.300    factor for augmentation sphere                          
   RDEP   =    1.550    radius for radial grids                                 
   RDEPT  =    1.329    core radius for aug-charge                              
                                                                                
   Atomic configuration                                                         
    4 entries                                                                   
     n  l   j            E        occ.                                          
     1  0  0.50      -514.6923   2.0000                                         
     2  0  0.50       -23.9615   2.0000                                         
     2  1  0.50        -9.0305   4.0000                                         
     3  2  1.50        -9.5241   0.0000                                         
   Description                                                                  
     l       E           TYP  RCUT    TYP  RCUT                                 
     0    -23.9615318     23  1.200                                             
     0     -9.5240782     23  1.200                                             
     1     -9.0304911     23  1.520                                             
     1      8.1634956     23  1.520                                             
     2     -9.5240782      7  1.500                                             
  local pseudopotential read in
  partial core-charges read in
  partial kinetic energy density read in
  kinetic energy density of atom read in
  atomic valenz-charges read in
  non local Contribution for L=           0  read in
    real space projection operators read in
  non local Contribution for L=           0  read in
    real space projection operators read in
  non local Contribution for L=           1  read in
    real space projection operators read in
  non local Contribution for L=           1  read in
    real space projection operators read in
    PAW grid and wavefunctions read in
 
   number of l-projection  operators is LMAX  =           4
   number of lm-projection operators is LMMAX =           8
 
 Optimization of the real space projectors (new method)

 maximal supplied QI-value         = 13.42
 optimisation between [QCUT,QGAM] = [ 11.67, 23.35] = [ 38.16,152.62] Ry 
 Optimized for a Real-space Cutoff    1.63 Angstroem

   l    n(q)    QCUT    max X(q) W(low)/X(q) W(high)/X(q)  e(spline) 
   0     11    11.673    13.882    0.27E-04    0.79E-05    0.11E-06
   0     11    11.673    12.184    0.39E-04    0.13E-04    0.19E-06
   1     11    11.673     4.523    0.73E-05    0.76E-05    0.12E-06
   1     11    11.673     4.424    0.87E-05    0.13E-04    0.19E-06
   2     10    11.673    52.481    0.65E-04    0.36E-04    0.18E-06
   2     10    11.673    38.501    0.61E-04    0.33E-04    0.17E-06
   3     10    11.673    65.631    0.17E-03    0.14E-03    0.37E-06
   3     10    11.673    56.854    0.17E-03    0.14E-03    0.37E-06
 Optimization of the real space projectors (new method)

 maximal supplied QI-value         = 16.25
 optimisation between [QCUT,QGAM] = [ 11.54, 23.24] = [ 37.28,151.24] Ry 
 Optimized for a Real-space Cutoff    1.53 Angstroem

   l    n(q)    QCUT    max X(q) W(low)/X(q) W(high)/X(q)  e(spline) 
   2     10    11.539   110.144    0.12E-03    0.13E-03    0.25E-06
   2     10    11.539   103.200    0.12E-03    0.13E-03    0.25E-06
   0     11    11.539    68.437    0.46E-04    0.21E-04    0.32E-06
   0     11    11.539    33.971    0.37E-04    0.19E-04    0.29E-06
   1     10    11.539    17.065    0.51E-04    0.22E-04    0.13E-06
   1     10    11.539    12.540    0.41E-04    0.18E-04    0.11E-06
 Optimization of the real space projectors (new method)

 maximal supplied QI-value         = 16.25
 optimisation between [QCUT,QGAM] = [ 11.54, 23.24] = [ 37.28,151.24] Ry 
 Optimized for a Real-space Cutoff    1.45 Angstroem

   l    n(q)    QCUT    max X(q) W(low)/X(q) W(high)/X(q)  e(spline) 
   2      9    11.539    60.317    0.19E-03    0.47E-04    0.16E-06
   2      9    11.539    55.921    0.19E-03    0.48E-04    0.16E-06
   0     10    11.539    51.690    0.80E-04    0.50E-04    0.24E-06
   0     10    11.539    30.015    0.73E-04    0.45E-04    0.22E-06
   1     10    11.539    18.849    0.87E-04    0.16E-03    0.71E-07
   1     10    11.539    14.624    0.73E-04    0.13E-03    0.64E-07
 Optimization of the real space projectors (new method)

 maximal supplied QI-value         = 24.76
 optimisation between [QCUT,QGAM] = [ 11.64, 23.27] = [ 37.91,151.63] Ry 
 Optimized for a Real-space Cutoff    1.14 Angstroem

   l    n(q)    QCUT    max X(q) W(low)/X(q) W(high)/X(q)  e(spline) 
   0      8    11.635    20.381    0.10E-03    0.33E-03    0.24E-06
   0      8    11.635    15.268    0.11E-03    0.35E-03    0.26E-06
   1      7    11.635     5.964    0.24E-03    0.31E-03    0.30E-06
   1      7    11.635     5.382    0.22E-03    0.25E-03    0.26E-06
  PAW_PBE La 06Sep2000                  :
 energy of atom  1       EATOM= -865.9763
 kinetic energy error for atom=    0.0009 (will be added to EATOM!!)
  PAW_PBE Mn 06Sep2000                  :
 energy of atom  2       EATOM= -416.7541
 kinetic energy error for atom=    0.0024 (will be added to EATOM!!)
  PAW_PBE Ni 02Aug2007                  :
 energy of atom  3       EATOM=-1077.6739
 kinetic energy error for atom=    0.0030 (will be added to EATOM!!)
  PAW_PBE O 08Apr2002                   :
 energy of atom  4       EATOM= -432.3788
 kinetic energy error for atom=    0.0208 (will be added to EATOM!!)
 
 
 POSCAR: SCEL4_1_2_2_0_0_0/0                     
  positions in direct lattice
  velocities in cartesian coordinates
 exchange correlation table for  LEXCH =        8
   RHO(1)=    0.500       N(1)  =     2000
   RHO(2)=  100.500       N(2)  =     4000
 


--------------------------------------------------------------------------------------------------------


 ion  position               nearest neighbor table
   1  0.000  0.494  0.006-  20 2.70  15 2.74  12 2.74  12 2.74  15 2.74  19 2.76  18 2.76  11 2.80
                            11 2.80  13 2.80  13 2.80  17 2.83   8 3.34   8 3.34   5 3.39   5 3.39
   2  0.000  0.006  0.494-  20 2.70  16 2.74  10 2.74  10 2.74  16 2.74  19 2.76  18 2.76   9 2.80
                             9 2.80  14 2.80  14 2.80  17 2.83   8 3.34   8 3.34   5 3.39   5 3.39
   3  0.000  0.494  0.494-  20 2.70  15 2.74  10 2.74  10 2.74  15 2.74  19 2.76  18 2.76   9 2.80
                             9 2.80  13 2.80  13 2.80  17 2.83   8 3.34   8 3.34   5 3.39   5 3.39
   4  0.000  0.006  0.006-  20 2.70  16 2.74  12 2.74  12 2.74  16 2.74  19 2.76  18 2.76  11 2.80
                            11 2.80  14 2.80  14 2.80  17 2.83   8 3.34   8 3.34   5 3.39   5 3.39
   5  0.500  0.750  0.250-  15 1.91  16 1.91   9 1.95  11 1.95  19 1.96  19 1.96   3 3.39   4 3.39
                             1 3.39   1 3.39   2 3.39   3 3.39   4 3.39   2 3.39
   6  0.500  0.250  0.750-  10 1.91  12 1.91  13 1.95  14 1.95  18 1.96  18 1.96   3 3.39   4 3.39
                             1 3.39   1 3.39   2 3.39   3 3.39   4 3.39   2 3.39
   7  0.500  0.750  0.750-  17 1.96  17 1.96  13 1.96  14 1.96   9 1.96  11 1.96
   8  0.500  0.250  0.250-  20 1.96  20 1.96  15 2.00  16 2.00  10 2.00  12 2.00   3 3.34   4 3.34
                             1 3.34   1 3.34   2 3.34   3 3.34   4 3.34   2 3.34
   9  0.500  0.750  0.499-   5 1.95   7 1.96   2 2.80   3 2.80   2 2.80   3 2.80
  10  0.500  0.250  0.506-   6 1.91   8 2.00   2 2.74   3 2.74   2 2.74   3 2.74
  11  0.500  0.750  0.001-   5 1.95   7 1.96   1 2.80   4 2.80   1 2.80   4 2.80
  12  0.500  0.250  0.994-   6 1.91   8 2.00   1 2.74   4 2.74   1 2.74   4 2.74
  13  0.500  0.499  0.750-   6 1.95   7 1.96   1 2.80   3 2.80   1 2.80   3 2.80
  14  0.500  0.001  0.750-   6 1.95   7 1.96   2 2.80   4 2.80   2 2.80   4 2.80
  15  0.500  0.506  0.250-   5 1.91   8 2.00   1 2.74   3 2.74   1 2.74   3 2.74
  16  0.500  0.994  0.250-   5 1.91   8 2.00   2 2.74   4 2.74   2 2.74   4 2.74
  17  0.000  0.750  0.750-   7 1.96   7 1.96   3 2.83   4 2.83   1 2.83   2 2.83
  18  0.000  0.250  0.750-   6 1.96   6 1.96   3 2.76   4 2.76   1 2.76   2 2.76
  19  0.000  0.750  0.250-   5 1.96   5 1.96   3 2.76   4 2.76   1 2.76   2 2.76
  20  0.000  0.250  0.250-   8 1.96   8 1.96   3 2.70   4 2.70   1 2.70   2 2.70
 
  LATTYP: Found a simple tetragonal cell.
 ALAT       =     7.8169648342
 C/A-ratio  =     0.5003844530
  
  Lattice vectors:
  
 A1 = (   0.0000000000,   7.8169648342,   0.0000000000)
 A2 = (   0.0000000000,   0.0000000000,  -7.8169648342)
 A3 = (  -3.9114876724,   0.0000000000,   0.0000000000)


Analysis of symmetry for initial positions (statically):
=====================================================================
 Subroutine PRICEL returns:
 Original cell was already a primitive cell.
 

 Routine SETGRP: Setting up the symmetry group for a 
 simple tetragonal supercell.


 Subroutine GETGRP returns: Found 16 space group operations
 (whereof  4 operations were pure point group operations)
 out of a pool of 16 trial point group operations.


The static configuration has the point symmetry C_2v.
 The point group associated with its full space group is D_4h.


Analysis of symmetry for dynamics (positions and initial velocities):
=====================================================================
 Subroutine PRICEL returns:
 Original cell was already a primitive cell.
 

 Routine SETGRP: Setting up the symmetry group for a 
 simple tetragonal supercell.


 Subroutine GETGRP returns: Found 16 space group operations
 (whereof  4 operations were pure point group operations)
 out of a pool of 16 trial point group operations.


The dynamic configuration has the point symmetry C_2v.
 The point group associated with its full space group is D_4h.


Analysis of structural, dynamic, and magnetic symmetry:
=====================================================================
 Subroutine PRICEL returns:
 Original cell was already a primitive cell.
 

 Routine SETGRP: Setting up the symmetry group for a 
 simple tetragonal supercell.


 Subroutine GETGRP returns: Found 16 space group operations
 (whereof  4 operations were pure point group operations)
 out of a pool of 16 trial point group operations.


The magnetic configuration has the point symmetry C_2v.
 The point group associated with its full space group is D_4h.


 Subroutine INISYM returns: Found 16 space group operations
 (whereof  4 operations are pure point group operations),
 and found     1 'primitive' translations

 
 
 KPOINTS: Automatic mesh                          

Automatic generation of k-mesh.
 generate k-points for:    5    3    3
Space group operators:
 irot       det(A)        alpha          n_x          n_y          n_z        tau_x        tau_y        tau_z
    1     1.000000     0.000001     1.000000     0.000000     0.000000     0.000000     0.000000     0.000000
    2    -1.000000   180.000000     1.000000     0.000000     0.000000     0.000000     0.000000     0.000000
    3    -1.000000   179.999999     0.000000    -0.707107     0.707107     0.000000     0.000000     0.000000
    4     1.000000   179.999999     0.000000     0.707107     0.707107     0.000000     0.000000     0.000000
    5    -1.000000     0.000001     1.000000     0.000000     0.000000     0.000000     0.500000    -0.500000
    6     1.000000    90.000000     1.000000     0.000000     0.000000     0.000000     0.000000    -0.500000
    7    -1.000000    90.000000     1.000000     0.000000     0.000000     0.000000     0.500000     0.000000
    8     1.000000   180.000000     1.000000     0.000000     0.000000     0.000000     0.500000    -0.500000
    9     1.000000    90.000000    -1.000000     0.000000     0.000000     0.000000     0.500000     0.000000
   10    -1.000000    90.000000    -1.000000     0.000000     0.000000     0.000000     0.000000    -0.500000
   11     1.000000   179.999999     0.000000     0.000000     1.000000     0.000000     0.500000     0.000000
   12    -1.000000   179.999999     0.000000     0.000000     1.000000     0.000000     0.000000    -0.500000
   13     1.000000   179.999999     0.000000    -0.707107     0.707107     0.000000     0.500000    -0.500000
   14     1.000000   179.999999     0.000000     1.000000     0.000000     0.000000     0.000000    -0.500000
   15    -1.000000   179.999999     0.000000     1.000000     0.000000     0.000000     0.500000     0.000000
   16    -1.000000   179.999999     0.000000     0.707107     0.707107     0.000000     0.500000    -0.500000
 
 Subroutine IBZKPT returns following result:
 ===========================================
 
 Found      9 irreducible k-points:
 
 Following reciprocal coordinates:
            Coordinates               Weight
  0.000000  0.000000  0.000000      1.000000
  0.200000  0.000000  0.000000      2.000000
  0.400000  0.000000  0.000000      2.000000
  0.000000  0.333333  0.000000      4.000000
  0.200000  0.333333  0.000000      8.000000
  0.400000  0.333333  0.000000      8.000000
  0.000000  0.333333  0.333333      4.000000
  0.200000  0.333333  0.333333      8.000000
  0.400000  0.333333  0.333333      8.000000
 
 Following cartesian coordinates:
            Coordinates               Weight
  0.000000  0.000000  0.000000      1.000000
  0.051131  0.000000  0.000000      2.000000
  0.102263  0.000000  0.000000      2.000000
  0.000000  0.042642  0.000000      4.000000
  0.051131  0.042642  0.000000      8.000000
  0.102263  0.042642  0.000000      8.000000
  0.000000  0.042642  0.042642      4.000000
  0.051131  0.042642  0.042642      8.000000
  0.102263  0.042642  0.042642      8.000000
 
 TETIRR: Found     59 inequivalent tetrahedra from      270


--------------------------------------------------------------------------------------------------------




 Dimension of arrays:
   k-points           NKPTS =      9   k-points in BZ     NKDIM =      9   number of bands    NBANDS=     96
   number of dos      NEDOS =    301   number of ions     NIONS =     20
   non local maximal  LDIM  =      8   non local SUM 2l+1 LMDIM =     32
   total plane-waves  NPLWV = 108000
   max r-space proj   IRMAX =   8205   max aug-charges    IRDMAX=  23808
   dimension x,y,z NGX =    30 NGY =   60 NGZ =   60
   dimension x,y,z NGXF=    60 NGYF=  120 NGZF=  120
   support grid    NGXF=    60 NGYF=  120 NGZF=  120
   ions per type =               4   3   1  12
   NGX,Y,Z   is equivalent  to a cutoff of  12.75, 12.76, 12.76 a.u.
   NGXF,Y,Z  is equivalent  to a cutoff of  25.50, 25.52, 25.52 a.u.

 SYSTEM =  final                                   
 POSCAR =  SCEL4_1_2_2_0_0_0/0                     

 Startparameter for this run:
   NWRITE =      2    write-flag & timer
   PREC   = accura    normal or accurate (medium, high low for compatibility)
   ISTART =      0    job   : 0-new  1-cont  2-samecut
   ICHARG =      1    charge: 1-file 2-atom 10-const
   ISPIN  =      2    spin polarized calculation?
   LNONCOLLINEAR =      F non collinear calculations
   LSORBIT =      F    spin-orbit coupling
   INIWAV =      1    electr: 0-lowe 1-rand  2-diag
   LASPH  =      F    aspherical Exc in radial PAW
   METAGGA=      F    non-selfconsistent MetaGGA calc.

 Electronic Relaxation 1
   ENCUT  =  520.0 eV  38.22 Ry    6.18 a.u.   7.27 14.53 14.53*2*pi/ulx,y,z
   ENINI  =  520.0     initial cutoff
   ENAUG  =  605.4 eV  augmentation charge cutoff
   NELM   =    100;   NELMIN=  2; NELMDL= -5     # of ELM steps 
   EDIFF  = 0.1E-02   stopping-criterion for ELM
   LREAL  =      T    real-space projection
   NLSPLINE    = F    spline interpolate recip. space projectors
   LCOMPAT=      F    compatible to vasp.4.4
   GGA_COMPAT  = T    GGA compatible to vasp.4.4-vasp.4.6
   LMAXPAW     = -100 max onsite density
   LMAXMIX     =    6 max onsite mixed and CHGCAR
   VOSKOWN=      0    Vosko Wilk Nusair interpolation
   ROPT   =   -0.00025  -0.00025  -0.00025  -0.00025
 Ionic relaxation
   EDIFFG = 0.1E-01   stopping-criterion for IOM
   NSW    =      0    number of steps for IOM
   NBLOCK =      1;   KBLOCK =      1    inner block; outer block 
   IBRION =     -1    ionic relax: 0-MD 1-quasi-New 2-CG
   NFREE  =      0    steps in history (QN), initial steepest desc. (CG)
   ISIF   =      2    stress and relaxation
   IWAVPR =     10    prediction:  0-non 1-charg 2-wave 3-comb
   ISYM   =      2    0-nonsym 1-usesym 2-fastsym
   LCORR  =      T    Harris-Foulkes like correction to forces

   POTIM  = 0.5000    time-step for ionic-motion
   TEIN   =    0.0    initial temperature
   TEBEG  =    0.0;   TEEND  =   0.0 temperature during run
   SMASS  =  -3.00    Nose mass-parameter (am)
   estimated Nose-frequenzy (Omega)   =  0.10E-29 period in steps =****** mass=  -0.350E-27a.u.
   SCALEE = 1.0000    scale energy and forces
   NPACO  =    256;   APACO  = 16.0  distance and # of slots for P.C.
   PSTRESS=    0.0 pullay stress

  Mass of Ions in am
   POMASS = 138.90 54.94 58.69 16.00
  Ionic Valenz
   ZVAL   =  11.00  7.00 10.00  6.00
  Atomic Wigner-Seitz radii
   RWIGS  =  -1.00 -1.00 -1.00 -1.00
  virtual crystal weights 
   VCA    =   1.00  1.00  1.00  1.00
   NELECT =     147.0000    total number of electrons
   NUPDOWN=      -1.0000    fix difference up-down

 DOS related values:
   EMIN   =  10.00;   EMAX   =-10.00  energy-range for DOS
   EFERMI =   0.00
   ISMEAR =    -5;   SIGMA  =   0.05  broadening in eV -4-tet -1-fermi 0-gaus

 Electronic relaxation 2 (details)
   IALGO  =     68    algorithm
   LDIAG  =      T    sub-space diagonalisation (order eigenvalues)
   LSUBROT=      F    optimize rotation matrix (better conditioning)
   TURBO    =      0    0=normal 1=particle mesh
   IRESTART =      0    0=no restart 2=restart with 2 vectors
   NREBOOT  =      0    no. of reboots
   NMIN     =      0    reboot dimension
   EREF     =   0.00    reference energy to select bands
   IMIX   =      4    mixing-type and parameters
     AMIX     =   0.40;   BMIX     =  1.00
     AMIX_MAG =   1.60;   BMIX_MAG =  1.00
     AMIN     =   0.10
     WC   =   100.;   INIMIX=   1;  MIXPRE=   1;  MAXMIX= -45

 Intra band minimization:
   WEIMIN = 0.0000     energy-eigenvalue tresh-hold
   EBREAK =  0.26E-05  absolut break condition
   DEPER  =   0.30     relativ break condition  

   TIME   =   0.40     timestep for ELM

  volume/ion in A,a.u.               =      11.95        80.65
  Fermi-wavevector in a.u.,A,eV,Ry     =   1.392220  2.630914 26.371851  1.938276
  Thomas-Fermi vector in A             =   2.515984
 
 Write flags
   LWAVE        =      F    write WAVECAR
   LDOWNSAMPLE  =      F    k-point downsampling of WAVECAR
   LCHARG       =      T    write CHGCAR
   LVTOT        =      F    write LOCPOT, total local potential
   LVHAR        =      F    write LOCPOT, Hartree potential only
   LELF         =      F    write electronic localiz. function (ELF)
   LORBIT       =     11    0 simple, 1 ext, 2 COOP (PROOUT), +10 PAW based schemes


 Dipole corrections
   LMONO  =      F    monopole corrections only (constant potential shift)
   LDIPOL =      F    correct potential (dipole corrections)
   IDIPOL =      0    1-x, 2-y, 3-z, 4-all directions 
   EPSILON=  1.0000000 bulk dielectric constant

 LDA+U is selected, type is set to LDAUTYPE =  2
   angular momentum for each species LDAUL =     0    2    2    0
   U (eV)           for each species LDAUU =   0.0  3.9  6.2  0.0
   J (eV)           for each species LDAUJ =   0.0  0.0  0.0  0.0
 Exchange correlation treatment:
   GGA     =    --    GGA type
   LEXCH   =     8    internal setting for exchange type
   VOSKOWN=      0    Vosko Wilk Nusair interpolation
   LHFCALC =     F    Hartree Fock is set to
   LHFONE  =     F    Hartree Fock one center treatment
   AEXX    =    0.0000 exact exchange contribution

 Linear response parameters
   LEPSILON=     F    determine dielectric tensor
   LRPA    =     F    only Hartree local field effects (RPA)
   LNABLA  =     F    use nabla operator in PAW spheres
   LVEL    =     F    velocity operator in full k-point grid
   LINTERFAST=   F  fast interpolation
   KINTER  =     0    interpolate to denser k-point grid
   CSHIFT  =0.1000    complex shift for real part using Kramers Kronig
   OMEGAMAX=  -1.0    maximum frequency
   DEG_THRESHOLD= 0.2000000E-02 threshold for treating states as degnerate
   RTIME   =   -0.100 relaxation time in fs
  (WPLASMAI=    0.000 imaginary part of plasma frequency in eV, 0.658/RTIME)
   DFIELD  = 0.0000000 0.0000000 0.0000000 field for delta impulse in time
 
 Orbital magnetization related:
   ORBITALMAG=     F  switch on orbital magnetization
   LCHIMAG   =     F  perturbation theory with respect to B field
   DQ        =  0.001000  dq finite difference perturbation B field
   LLRAUG    =     F  two centre corrections for induced B field



--------------------------------------------------------------------------------------------------------


 Static calculation
 charge density and potential will be updated during run
 spin polarized calculation
 RMM-DIIS sequential band-by-band and
  variant of blocked Davidson during initial phase
 perform sub-space diagonalisation
    before iterative eigenvector-optimisation
 modified Broyden-mixing scheme, WC =      100.0
 initial mixing is a Kerker type mixing with AMIX =  0.4000 and BMIX =      1.0000
 Hartree-type preconditioning will be used
 using additional bands           22
 real space projection scheme for non local part
 use partial core corrections
 calculate Harris-corrections to forces 
   (improved forces if not selfconsistent)
 use gradient corrections 
 use of overlap-Matrix (Vanderbilt PP)
 Fermi weights with tetrahedron method with Bloechl corrections


--------------------------------------------------------------------------------------------------------


  energy-cutoff  :      520.00
  volume of cell :      239.01
      direct lattice vectors                 reciprocal lattice vectors
     3.911487672  0.000000000  0.000000000     0.255657204  0.000000000  0.000000000
     0.000000000  7.816964834  0.000000000     0.000000000  0.127926890  0.000000000
     0.000000000  0.000000000  7.816964834     0.000000000  0.000000000  0.127926890

  length of vectors
     3.911487672  7.816964834  7.816964834     0.255657204  0.127926890  0.127926890


 
 k-points in units of 2pi/SCALE and weight: Automatic mesh                          
   0.00000000  0.00000000  0.00000000       0.022
   0.05113144  0.00000000  0.00000000       0.044
   0.10226288  0.00000000  0.00000000       0.044
   0.00000000  0.04264230  0.00000000       0.089
   0.05113144  0.04264230  0.00000000       0.178
   0.10226288  0.04264230  0.00000000       0.178
   0.00000000  0.04264230  0.04264230       0.089
   0.05113144  0.04264230  0.04264230       0.178
   0.10226288  0.04264230  0.04264230       0.178
 
 k-points in reciprocal lattice and weights: Automatic mesh                          
   0.00000000  0.00000000  0.00000000       0.022
   0.20000000  0.00000000  0.00000000       0.044
   0.40000000  0.00000000  0.00000000       0.044
   0.00000000  0.33333333  0.00000000       0.089
   0.20000000  0.33333333  0.00000000       0.178
   0.40000000  0.33333333  0.00000000       0.178
   0.00000000  0.33333333  0.33333333       0.089
   0.20000000  0.33333333  0.33333333       0.178
   0.40000000  0.33333333  0.33333333       0.178
 
 position of ions in fractional coordinates (direct lattice) 
   0.00000000  0.49438293  0.00561707
   0.00000000  0.00561707  0.49438293
   0.00000000  0.49438293  0.49438293
   0.00000000  0.00561707  0.00561707
   0.50000000  0.75000000  0.25000000
   0.50000000  0.25000000  0.75000000
   0.50000000  0.75000000  0.75000000
   0.50000000  0.25000000  0.25000000
   0.50000000  0.75000000  0.49922234
   0.50000000  0.25000000  0.50587872
   0.50000000  0.75000000  0.00077766
   0.50000000  0.25000000  0.99412128
   0.50000000  0.49922234  0.75000000
   0.50000000  0.00077766  0.75000000
   0.50000000  0.50587872  0.25000000
   0.50000000  0.99412128  0.25000000
   0.00000000  0.75000000  0.75000000
   0.00000000  0.25000000  0.75000000
   0.00000000  0.75000000  0.25000000
   0.00000000  0.25000000  0.25000000
 
 position of ions in cartesian coordinates  (Angst):
   0.00000000  3.86457401  0.04390841
   0.00000000  0.04390841  3.86457401
   0.00000000  3.86457401  3.86457401
   0.00000000  0.04390841  0.04390841
   1.95574384  5.86272363  1.95424121
   1.95574384  1.95424121  5.86272363
   1.95574384  5.86272363  5.86272363
   1.95574384  1.95424121  1.95424121
   1.95574384  5.86272363  3.90240349
   1.95574384  1.95424121  3.95443618
   1.95574384  5.86272363  0.00607893
   1.95574384  1.95424121  7.77101107
   1.95574384  3.90240349  5.86272363
   1.95574384  0.00607893  5.86272363
   1.95574384  3.95443618  1.95424121
   1.95574384  7.77101107  1.95424121
   0.00000000  5.86272363  5.86272363
   0.00000000  1.95424121  5.86272363
   0.00000000  5.86272363  1.95424121
   0.00000000  1.95424121  1.95424121
 


--------------------------------------------------------------------------------------------------------


 k-point  1 :   0.0000 0.0000 0.0000  plane waves:    6447
 k-point  2 :   0.2000 0.0000 0.0000  plane waves:    6451
 k-point  3 :   0.4000 0.0000 0.0000  plane waves:    6446
 k-point  4 :   0.0000 0.3333 0.0000  plane waves:    6439
 k-point  5 :   0.2000 0.3333 0.0000  plane waves:    6440
 k-point  6 :   0.4000 0.3333 0.0000  plane waves:    6449
 k-point  7 :   0.0000 0.3333 0.3333  plane waves:    6456
 k-point  8 :   0.2000 0.3333 0.3333  plane waves:    6431
 k-point  9 :   0.4000 0.3333 0.3333  plane waves:    6430

 maximum and minimum number of plane-waves per node :       658      629

 maximum number of plane-waves:      6456
 maximum index in each direction: 
   IXMAX=    7   IYMAX=   14   IZMAX=   14
   IXMIN=   -7   IYMIN=  -14   IZMIN=  -14


 real space projection operators:
  total allocation   :      13542.41 KBytes
  max/ min on nodes  :       1403.62       1332.31


 parallel 3D FFT for wavefunctions:
    minimum data exchange during FFTs selected (reduces bandwidth)
 parallel 3D FFT for charge:
    minimum data exchange during FFTs selected (reduces bandwidth)


 total amount of memory used by VASP MPI-rank0    51068. kBytes
=======================================================================

   base      :      30000. kBytes
   nonlr-proj:       4506. kBytes
   fftplans  :       1809. kBytes
   grid      :       5074. kBytes
   one-center:        196. kBytes
   wavefun   :       9483. kBytes
 
     INWAV:  cpu time    0.0000: real time    0.0000
 Broyden mixing: mesh for mixing (old mesh)
   NGX = 15   NGY = 29   NGZ = 29
  (NGX  = 60   NGY  =120   NGZ  =120)
  gives a total of  12615 points

 initial charge density was supplied:
 charge density of overlapping atoms calculated
 number of electron     147.0000000 magnetization      15.0000000
 keeping initial charge density in first step


--------------------------------------------------------------------------------------------------------


 Maximum index for non-local projection operator          808
 Maximum index for augmentation-charges          973 (set IRDMAX)


--------------------------------------------------------------------------------------------------------


 First call to EWALD:  gamma=   0.286
 Maximum number of real-space cells 4x 2x 2
 Maximum number of reciprocal cells 2x 3x 3

    FEWALD:  cpu time    0.0021: real time    0.0021


--------------------------------------- Iteration      1(   1)  ---------------------------------------


    POTLOK:  cpu time    0.0506: real time    0.0516
    SETDIJ:  cpu time    0.0127: real time    0.0129
atom =   1  type =  1  l = 0
 
 onsite density matrix
 
spin component  1
 
  1.0989
 
spin component  2
 
  1.0989
 
 occupancies and eigenvectors
 
  o =  1.0989  v =  1.0000  0.0000      0.0000  0.0000
  o =  1.0989  v =  0.0000  1.0000      0.0000  0.0000
atom =   2  type =  1  l = 0
 
 onsite density matrix
 
spin component  1
 
  1.0989
 
spin component  2
 
  1.0989
 
 occupancies and eigenvectors
 
  o =  1.0989  v =  1.0000  0.0000      0.0000  0.0000
  o =  1.0989  v =  0.0000  1.0000      0.0000  0.0000
atom =   3  type =  1  l = 0
 
 onsite density matrix
 
spin component  1
 
  1.0989
 
spin component  2
 
  1.0989
 
 occupancies and eigenvectors
 
  o =  1.0989  v =  1.0000  0.0000      0.0000  0.0000
  o =  1.0989  v =  0.0000  1.0000      0.0000  0.0000
atom =   4  type =  1  l = 0
 
 onsite density matrix
 
spin component  1
 
  1.0989
 
spin component  2
 
  1.0989
 
 occupancies and eigenvectors
 
  o =  1.0989  v =  1.0000  0.0000      0.0000  0.0000
  o =  1.0989  v =  0.0000  1.0000      0.0000  0.0000
atom =   5  type =  2  l = 2
 
 onsite density matrix
 
spin component  1
 
  0.8272  0.0000  0.0000  0.0000  0.0000
  0.0000  0.8272  0.0000  0.0000  0.0000
  0.0000  0.0000  0.8272  0.0000  0.0000
  0.0000  0.0000  0.0000  0.8272  0.0000
  0.0000  0.0000  0.0000  0.0000  0.8272
 
spin component  2
 
  0.2256  0.0000  0.0000  0.0000  0.0000
  0.0000  0.2256  0.0000  0.0000  0.0000
  0.0000  0.0000  0.2256  0.0000  0.0000
  0.0000  0.0000  0.0000  0.2256  0.0000
  0.0000  0.0000  0.0000  0.0000  0.2256
 
 occupancies and eigenvectors
 
  o =  0.2256  v =  0.0000  0.0000  0.0000  0.0000  0.0000  0.0000  0.0000  1.0000  0.0000  0.0000      0.0000  0.0000  0.0000  0.0000  0.0000  0.0000  0.0000  0.0000  0.0000  0.0000
  o =  0.2256  v =  0.0000  0.0000  0.0000  0.0000  0.0000  1.0000  0.0000  0.0000  0.0000  0.0000      0.0000  0.0000  0.0000  0.0000  0.0000  0.0000  0.0000  0.0000  0.0000  0.0000
  o =  0.2256  v =  0.0000  0.0000  0.0000  0.0000  0.0000  0.0000  1.0000  0.0000  0.0000  0.0000      0.0000  0.0000  0.0000  0.0000  0.0000  0.0000  0.0000  0.0000  0.0000  0.0000
  o =  0.2256  v =  0.0000  0.0000  0.0000  0.0000  0.0000  0.0000  0.0000  0.0000  1.0000  0.0000      0.0000  0.0000  0.0000  0.0000  0.0000  0.0000  0.0000  0.0000  0.0000  0.0000
  o =  0.2256  v =  0.0000  0.0000  0.0000  0.0000  0.0000  0.0000  0.0000  0.0000  0.0000  1.0000      0.0000  0.0000  0.0000  0.0000  0.0000  0.0000  0.0000  0.0000  0.0000  0.0000
  o =  0.8272  v =  0.0000  1.0000  0.0000  0.0000  0.0000  0.0000  0.0000  0.0000  0.0000  0.0000      0.0000  0.0000  0.0000  0.0000  0.0000  0.0000  0.0000  0.0000  0.0000  0.0000
  o =  0.8272  v =  0.0000  0.0000  1.0000  0.0000  0.0000  0.0000  0.0000  0.0000  0.0000  0.0000      0.0000  0.0000  0.0000  0.0000  0.0000  0.0000  0.0000  0.0000  0.0000  0.0000
  o =  0.8272  v =  1.0000  0.0000  0.0000  0.0000  0.0000  0.0000  0.0000  0.0000  0.0000  0.0000      0.0000  0.0000  0.0000  0.0000  0.0000  0.0000  0.0000  0.0000  0.0000  0.0000
  o =  0.8272  v =  0.0000  0.0000  0.0000  1.0000  0.0000  0.0000  0.0000  0.0000  0.0000  0.0000      0.0000  0.0000  0.0000  0.0000  0.0000  0.0000  0.0000  0.0000  0.0000  0.0000
  o =  0.8272  v =  0.0000  0.0000  0.0000  0.0000  1.0000  0.0000  0.0000  0.0000  0.0000  0.0000      0.0000  0.0000  0.0000  0.0000  0.0000  0.0000  0.0000  0.0000  0.0000  0.0000
atom =   6  type =  2  l = 2
 
 onsite density matrix
 
spin component  1
 
  0.8272  0.0000  0.0000  0.0000  0.0000
  0.0000  0.8272  0.0000  0.0000  0.0000
  0.0000  0.0000  0.8272  0.0000  0.0000
  0.0000  0.0000  0.0000  0.8272  0.0000
  0.0000  0.0000  0.0000  0.0000  0.8272
 
spin component  2
 
  0.2256  0.0000  0.0000  0.0000  0.0000
  0.0000  0.2256  0.0000  0.0000  0.0000
  0.0000  0.0000  0.2256  0.0000  0.0000
  0.0000  0.0000  0.0000  0.2256  0.0000
  0.0000  0.0000  0.0000  0.0000  0.2256
 
 occupancies and eigenvectors
 
  o =  0.2256  v =  0.0000  0.0000  0.0000  0.0000  0.0000  0.0000  0.0000  1.0000  0.0000  0.0000      0.0000  0.0000  0.0000  0.0000  0.0000  0.0000  0.0000  0.0000  0.0000  0.0000
  o =  0.2256  v =  0.0000  0.0000  0.0000  0.0000  0.0000  1.0000  0.0000  0.0000  0.0000  0.0000      0.0000  0.0000  0.0000  0.0000  0.0000  0.0000  0.0000  0.0000  0.0000  0.0000
  o =  0.2256  v =  0.0000  0.0000  0.0000  0.0000  0.0000  0.0000  1.0000  0.0000  0.0000  0.0000      0.0000  0.0000  0.0000  0.0000  0.0000  0.0000  0.0000  0.0000  0.0000  0.0000
  o =  0.2256  v =  0.0000  0.0000  0.0000  0.0000  0.0000  0.0000  0.0000  0.0000  1.0000  0.0000      0.0000  0.0000  0.0000  0.0000  0.0000  0.0000  0.0000  0.0000  0.0000  0.0000
  o =  0.2256  v =  0.0000  0.0000  0.0000  0.0000  0.0000  0.0000  0.0000  0.0000  0.0000  1.0000      0.0000  0.0000  0.0000  0.0000  0.0000  0.0000  0.0000  0.0000  0.0000  0.0000
  o =  0.8272  v =  0.0000  1.0000  0.0000  0.0000  0.0000  0.0000  0.0000  0.0000  0.0000  0.0000      0.0000  0.0000  0.0000  0.0000  0.0000  0.0000  0.0000  0.0000  0.0000  0.0000
  o =  0.8272  v =  0.0000  0.0000  1.0000  0.0000  0.0000  0.0000  0.0000  0.0000  0.0000  0.0000      0.0000  0.0000  0.0000  0.0000  0.0000  0.0000  0.0000  0.0000  0.0000  0.0000
  o =  0.8272  v =  1.0000  0.0000  0.0000  0.0000  0.0000  0.0000  0.0000  0.0000  0.0000  0.0000      0.0000  0.0000  0.0000  0.0000  0.0000  0.0000  0.0000  0.0000  0.0000  0.0000
  o =  0.8272  v =  0.0000  0.0000  0.0000  1.0000  0.0000  0.0000  0.0000  0.0000  0.0000  0.0000      0.0000  0.0000  0.0000  0.0000  0.0000  0.0000  0.0000  0.0000  0.0000  0.0000
  o =  0.8272  v =  0.0000  0.0000  0.0000  0.0000  1.0000  0.0000  0.0000  0.0000  0.0000  0.0000      0.0000  0.0000  0.0000  0.0000  0.0000  0.0000  0.0000  0.0000  0.0000  0.0000
atom =   7  type =  2  l = 2
 
 onsite density matrix
 
spin component  1
 
  0.8272  0.0000  0.0000  0.0000  0.0000
  0.0000  0.8272  0.0000  0.0000  0.0000
  0.0000  0.0000  0.8272  0.0000  0.0000
  0.0000  0.0000  0.0000  0.8272  0.0000
  0.0000  0.0000  0.0000  0.0000  0.8272
 
spin component  2
 
  0.2256  0.0000  0.0000  0.0000  0.0000
  0.0000  0.2256  0.0000  0.0000  0.0000
  0.0000  0.0000  0.2256  0.0000  0.0000
  0.0000  0.0000  0.0000  0.2256  0.0000
  0.0000  0.0000  0.0000  0.0000  0.2256
 
 occupancies and eigenvectors
 
  o =  0.2256  v =  0.0000  0.0000  0.0000  0.0000  0.0000  0.0000  0.0000  1.0000  0.0000  0.0000      0.0000  0.0000  0.0000  0.0000  0.0000  0.0000  0.0000  0.0000  0.0000  0.0000
  o =  0.2256  v =  0.0000  0.0000  0.0000  0.0000  0.0000  1.0000  0.0000  0.0000  0.0000  0.0000      0.0000  0.0000  0.0000  0.0000  0.0000  0.0000  0.0000  0.0000  0.0000  0.0000
  o =  0.2256  v =  0.0000  0.0000  0.0000  0.0000  0.0000  0.0000  1.0000  0.0000  0.0000  0.0000      0.0000  0.0000  0.0000  0.0000  0.0000  0.0000  0.0000  0.0000  0.0000  0.0000
  o =  0.2256  v =  0.0000  0.0000  0.0000  0.0000  0.0000  0.0000  0.0000  0.0000  1.0000  0.0000      0.0000  0.0000  0.0000  0.0000  0.0000  0.0000  0.0000  0.0000  0.0000  0.0000
  o =  0.2256  v =  0.0000  0.0000  0.0000  0.0000  0.0000  0.0000  0.0000  0.0000  0.0000  1.0000      0.0000  0.0000  0.0000  0.0000  0.0000  0.0000  0.0000  0.0000  0.0000  0.0000
  o =  0.8272  v =  0.0000  1.0000  0.0000  0.0000  0.0000  0.0000  0.0000  0.0000  0.0000  0.0000      0.0000  0.0000  0.0000  0.0000  0.0000  0.0000  0.0000  0.0000  0.0000  0.0000
  o =  0.8272  v =  0.0000  0.0000  1.0000  0.0000  0.0000  0.0000  0.0000  0.0000  0.0000  0.0000      0.0000  0.0000  0.0000  0.0000  0.0000  0.0000  0.0000  0.0000  0.0000  0.0000
  o =  0.8272  v =  1.0000  0.0000  0.0000  0.0000  0.0000  0.0000  0.0000  0.0000  0.0000  0.0000      0.0000  0.0000  0.0000  0.0000  0.0000  0.0000  0.0000  0.0000  0.0000  0.0000
  o =  0.8272  v =  0.0000  0.0000  0.0000  1.0000  0.0000  0.0000  0.0000  0.0000  0.0000  0.0000      0.0000  0.0000  0.0000  0.0000  0.0000  0.0000  0.0000  0.0000  0.0000  0.0000
  o =  0.8272  v =  0.0000  0.0000  0.0000  0.0000  1.0000  0.0000  0.0000  0.0000  0.0000  0.0000      0.0000  0.0000  0.0000  0.0000  0.0000  0.0000  0.0000  0.0000  0.0000  0.0000
atom =   8  type =  3  l = 2
 
 onsite density matrix
 
spin component  1
 
  1.1008  0.0000  0.0000  0.0000  0.0000
  0.0000  1.1008  0.0000  0.0000  0.0000
  0.0000  0.0000  1.1008  0.0000  0.0000
  0.0000  0.0000  0.0000  1.1008  0.0000
  0.0000  0.0000  0.0000  0.0000  1.1008
 
spin component  2
 
  0.5927  0.0000  0.0000  0.0000  0.0000
  0.0000  0.5927  0.0000  0.0000  0.0000
  0.0000  0.0000  0.5927  0.0000  0.0000
  0.0000  0.0000  0.0000  0.5927  0.0000
  0.0000  0.0000  0.0000  0.0000  0.5927
 
 occupancies and eigenvectors
 
  o =  0.5927  v =  0.0000  0.0000  0.0000  0.0000  0.0000  1.0000  0.0000  0.0000  0.0000  0.0000      0.0000  0.0000  0.0000  0.0000  0.0000  0.0000  0.0000  0.0000  0.0000  0.0000
  o =  0.5927  v =  0.0000  0.0000  0.0000  0.0000  0.0000  0.0000  1.0000  0.0000  0.0000  0.0000      0.0000  0.0000  0.0000  0.0000  0.0000  0.0000  0.0000  0.0000  0.0000  0.0000
  o =  0.5927  v =  0.0000  0.0000  0.0000  0.0000  0.0000  0.0000  0.0000  1.0000  0.0000  0.0000      0.0000  0.0000  0.0000  0.0000  0.0000  0.0000  0.0000  0.0000  0.0000  0.0000
  o =  0.5927  v =  0.0000  0.0000  0.0000  0.0000  0.0000  0.0000  0.0000  0.0000  1.0000  0.0000      0.0000  0.0000  0.0000  0.0000  0.0000  0.0000  0.0000  0.0000  0.0000  0.0000
  o =  0.5927  v =  0.0000  0.0000  0.0000  0.0000  0.0000  0.0000  0.0000  0.0000  0.0000  1.0000      0.0000  0.0000  0.0000  0.0000  0.0000  0.0000  0.0000  0.0000  0.0000  0.0000
  o =  1.1008  v =  1.0000  0.0000  0.0000  0.0000  0.0000  0.0000  0.0000  0.0000  0.0000  0.0000      0.0000  0.0000  0.0000  0.0000  0.0000  0.0000  0.0000  0.0000  0.0000  0.0000
  o =  1.1008  v =  0.0000  1.0000  0.0000  0.0000  0.0000  0.0000  0.0000  0.0000  0.0000  0.0000      0.0000  0.0000  0.0000  0.0000  0.0000  0.0000  0.0000  0.0000  0.0000  0.0000
  o =  1.1008  v =  0.0000  0.0000  1.0000  0.0000  0.0000  0.0000  0.0000  0.0000  0.0000  0.0000      0.0000  0.0000  0.0000  0.0000  0.0000  0.0000  0.0000  0.0000  0.0000  0.0000
  o =  1.1008  v =  0.0000  0.0000  0.0000  1.0000  0.0000  0.0000  0.0000  0.0000  0.0000  0.0000      0.0000  0.0000  0.0000  0.0000  0.0000  0.0000  0.0000  0.0000  0.0000  0.0000
  o =  1.1008  v =  0.0000  0.0000  0.0000  0.0000  1.0000  0.0000  0.0000  0.0000  0.0000  0.0000      0.0000  0.0000  0.0000  0.0000  0.0000  0.0000  0.0000  0.0000  0.0000  0.0000
atom =   9  type =  4  l = 0
 
 onsite density matrix
 
spin component  1
 
  0.8190
 
spin component  2
 
  0.8190
 
 occupancies and eigenvectors
 
  o =  0.8190  v =  1.0000  0.0000      0.0000  0.0000
  o =  0.8190  v =  0.0000  1.0000      0.0000  0.0000
atom =  10  type =  4  l = 0
 
 onsite density matrix
 
spin component  1
 
  0.8190
 
spin component  2
 
  0.8190
 
 occupancies and eigenvectors
 
  o =  0.8190  v =  1.0000  0.0000      0.0000  0.0000
  o =  0.8190  v =  0.0000  1.0000      0.0000  0.0000
atom =  11  type =  4  l = 0
 
 onsite density matrix
 
spin component  1
 
  0.8190
 
spin component  2
 
  0.8190
 
 occupancies and eigenvectors
 
  o =  0.8190  v =  1.0000  0.0000      0.0000  0.0000
  o =  0.8190  v =  0.0000  1.0000      0.0000  0.0000
atom =  12  type =  4  l = 0
 
 onsite density matrix
 
spin component  1
 
  0.8190
 
spin component  2
 
  0.8190
 
 occupancies and eigenvectors
 
  o =  0.8190  v =  1.0000  0.0000      0.0000  0.0000
  o =  0.8190  v =  0.0000  1.0000      0.0000  0.0000
atom =  13  type =  4  l = 0
 
 onsite density matrix
 
spin component  1
 
  0.8190
 
spin component  2
 
  0.8190
 
 occupancies and eigenvectors
 
  o =  0.8190  v =  1.0000  0.0000      0.0000  0.0000
  o =  0.8190  v =  0.0000  1.0000      0.0000  0.0000
atom =  14  type =  4  l = 0
 
 onsite density matrix
 
spin component  1
 
  0.8190
 
spin component  2
 
  0.8190
 
 occupancies and eigenvectors
 
  o =  0.8190  v =  1.0000  0.0000      0.0000  0.0000
  o =  0.8190  v =  0.0000  1.0000      0.0000  0.0000
atom =  15  type =  4  l = 0
 
 onsite density matrix
 
spin component  1
 
  0.8190
 
spin component  2
 
  0.8190
 
 occupancies and eigenvectors
 
  o =  0.8190  v =  1.0000  0.0000      0.0000  0.0000
  o =  0.8190  v =  0.0000  1.0000      0.0000  0.0000
atom =  16  type =  4  l = 0
 
 onsite density matrix
 
spin component  1
 
  0.8190
 
spin component  2
 
  0.8190
 
 occupancies and eigenvectors
 
  o =  0.8190  v =  1.0000  0.0000      0.0000  0.0000
  o =  0.8190  v =  0.0000  1.0000      0.0000  0.0000
atom =  17  type =  4  l = 0
 
 onsite density matrix
 
spin component  1
 
  0.8190
 
spin component  2
 
  0.8190
 
 occupancies and eigenvectors
 
  o =  0.8190  v =  1.0000  0.0000      0.0000  0.0000
  o =  0.8190  v =  0.0000  1.0000      0.0000  0.0000
atom =  18  type =  4  l = 0
 
 onsite density matrix
 
spin component  1
 
  0.8190
 
spin component  2
 
  0.8190
 
 occupancies and eigenvectors
 
  o =  0.8190  v =  1.0000  0.0000      0.0000  0.0000
  o =  0.8190  v =  0.0000  1.0000      0.0000  0.0000
atom =  19  type =  4  l = 0
 
 onsite density matrix
 
spin component  1
 
  0.8190
 
spin component  2
 
  0.8190
 
 occupancies and eigenvectors
 
  o =  0.8190  v =  1.0000  0.0000      0.0000  0.0000
  o =  0.8190  v =  0.0000  1.0000      0.0000  0.0000
atom =  20  type =  4  l = 0
 
 onsite density matrix
 
spin component  1
 
  0.8190
 
spin component  2
 
  0.8190
 
 occupancies and eigenvectors
 
  o =  0.8190  v =  1.0000  0.0000      0.0000  0.0000
  o =  0.8190  v =  0.0000  1.0000      0.0000  0.0000
     EDDAV:  cpu time    1.3659: real time    1.3734
 BZINTS: Fermi energy: 28.699546;147.000000 electrons
         Band energy:2068.447734;  BLOECHL correction: -0.287045
       DOS:  cpu time    0.0146: real time    0.0148
    --------------------------------------------
      LOOP:  cpu time    1.4438: real time    1.4526

 eigenvalue-minimisations  :  3704
 total energy-change (2. order) : 0.2252857E+04  (-0.5296024E+04)
 number of electron     147.0000000 magnetization      15.0000000
 augmentation part      147.0000000 magnetization      15.0000000

 Free energy of the ion-electron system (eV)
  ---------------------------------------------------
  alpha Z        PSCENC =       646.44463249
  Ewald energy   TEWEN  =     -9878.02846910
  -Hartree energ DENC   =     -2027.87501015
  -exchange      EXHF   =         0.00000000
  -V(xc)+E(xc)   XCENC  =       459.15385507
  PAW double counting   =      8910.65829758    -8906.06727678
  entropy T*S    EENTRO =         0.00000000
  eigenvalues    EBANDS =      2068.44773367
  atomic energy  EATOM  =     10980.12334246
  Solvation  Ediel_sol  =         0.00000000
  ---------------------------------------------------
  free energy    TOTEN  =      2252.85710525 eV

  energy without entropy =     2252.85710525  energy(sigma->0) =     2252.85710525


--------------------------------------------------------------------------------------------------------




--------------------------------------- Iteration      1(   2)  ---------------------------------------


     EDDAV:  cpu time    1.4201: real time    1.4294
 BZINTS: Fermi energy: 15.566404;147.000000 electrons
         Band energy: 529.062092;  BLOECHL correction: -0.093118
       DOS:  cpu time    0.0157: real time    0.0157
    --------------------------------------------
      LOOP:  cpu time    1.4357: real time    1.4451

 eigenvalue-minimisations  :  3936
 total energy-change (2. order) :-0.1539386E+04  (-0.1392767E+04)
 number of electron     147.0000000 magnetization      15.0000000
 augmentation part      147.0000000 magnetization      15.0000000

 Free energy of the ion-electron system (eV)
  ---------------------------------------------------
  alpha Z        PSCENC =       646.44463249
  Ewald energy   TEWEN  =     -9878.02846910
  -Hartree energ DENC   =     -2027.87501015
  -exchange      EXHF   =         0.00000000
  -V(xc)+E(xc)   XCENC  =       459.15385507
  PAW double counting   =      8910.65829758    -8906.06727678
  entropy T*S    EENTRO =         0.00000000
  eigenvalues    EBANDS =       529.06209160
  atomic energy  EATOM  =     10980.12334246
  Solvation  Ediel_sol  =         0.00000000
  ---------------------------------------------------
  free energy    TOTEN  =       713.47146318 eV

  energy without entropy =      713.47146318  energy(sigma->0) =      713.47146318


--------------------------------------------------------------------------------------------------------




--------------------------------------- Iteration      1(   3)  ---------------------------------------


     EDDAV:  cpu time    1.5384: real time    1.5453
 BZINTS: Fermi energy: 11.802345;147.000000 electrons
         Band energy: -88.080068;  BLOECHL correction: -0.020888
       DOS:  cpu time    0.0154: real time    0.0154
    --------------------------------------------
      LOOP:  cpu time    1.5538: real time    1.5608

 eigenvalue-minimisations  :  4392
 total energy-change (2. order) :-0.6171422E+03  (-0.5678476E+03)
 number of electron     147.0000000 magnetization      15.0000000
 augmentation part      147.0000000 magnetization      15.0000000

 Free energy of the ion-electron system (eV)
  ---------------------------------------------------
  alpha Z        PSCENC =       646.44463249
  Ewald energy   TEWEN  =     -9878.02846910
  -Hartree energ DENC   =     -2027.87501015
  -exchange      EXHF   =         0.00000000
  -V(xc)+E(xc)   XCENC  =       459.15385507
  PAW double counting   =      8910.65829758    -8906.06727678
  entropy T*S    EENTRO =         0.00000000
  eigenvalues    EBANDS =       -88.08006758
  atomic energy  EATOM  =     10980.12334246
  Solvation  Ediel_sol  =         0.00000000
  ---------------------------------------------------
  free energy    TOTEN  =        96.32930400 eV

  energy without entropy =       96.32930400  energy(sigma->0) =       96.32930400


--------------------------------------------------------------------------------------------------------




--------------------------------------- Iteration      1(   4)  ---------------------------------------


     EDDAV:  cpu time    1.9311: real time    1.9413
 BZINTS: Fermi energy: 11.150293;147.000000 electrons
         Band energy:-317.051938;  BLOECHL correction: -0.009398
       DOS:  cpu time    0.0159: real time    0.0160
    --------------------------------------------
      LOOP:  cpu time    1.9470: real time    1.9573

 eigenvalue-minimisations  :  5696
 total energy-change (2. order) :-0.2289719E+03  (-0.2166211E+03)
 number of electron     147.0000000 magnetization      15.0000000
 augmentation part      147.0000000 magnetization      15.0000000

 Free energy of the ion-electron system (eV)
  ---------------------------------------------------
  alpha Z        PSCENC =       646.44463249
  Ewald energy   TEWEN  =     -9878.02846910
  -Hartree energ DENC   =     -2027.87501015
  -exchange      EXHF   =         0.00000000
  -V(xc)+E(xc)   XCENC  =       459.15385507
  PAW double counting   =      8910.65829758    -8906.06727678
  entropy T*S    EENTRO =         0.00000000
  eigenvalues    EBANDS =      -317.05193787
  atomic energy  EATOM  =     10980.12334246
  Solvation  Ediel_sol  =         0.00000000
  ---------------------------------------------------
  free energy    TOTEN  =      -132.64256628 eV

  energy without entropy =     -132.64256628  energy(sigma->0) =     -132.64256628


--------------------------------------------------------------------------------------------------------




--------------------------------------- Iteration      1(   5)  ---------------------------------------


     EDDAV:  cpu time    2.1103: real time    2.1185
 BZINTS: Fermi energy: 10.754159;147.000000 electrons
         Band energy:-359.508815;  BLOECHL correction: -0.101440
       DOS:  cpu time    0.0149: real time    0.0149
    CHARGE:  cpu time    0.0835: real time    0.0846
    MIXING:  cpu time    0.0026: real time    0.0028
    --------------------------------------------
      LOOP:  cpu time    2.2113: real time    2.2209

 eigenvalue-minimisations  :  6256
 total energy-change (2. order) :-0.4245688E+02  (-0.4069634E+02)
 number of electron     147.0000043 magnetization      13.2069595
 augmentation part       16.1775454 magnetization       8.9264461

 Broyden mixing:
  rms(total) = 0.55052E+01    rms(broyden)= 0.55044E+01
  rms(prec ) = 0.70140E+01
  weight for this iteration     100.00

 Free energy of the ion-electron system (eV)
  ---------------------------------------------------
  alpha Z        PSCENC =       646.44463249
  Ewald energy   TEWEN  =     -9878.02846910
  -Hartree energ DENC   =     -2027.87501015
  -exchange      EXHF   =         0.00000000
  -V(xc)+E(xc)   XCENC  =       459.15385507
  PAW double counting   =      8910.65829758    -8906.06727678
  entropy T*S    EENTRO =         0.00000000
  eigenvalues    EBANDS =      -359.50881514
  atomic energy  EATOM  =     10980.12334246
  Solvation  Ediel_sol  =         0.00000000
  ---------------------------------------------------
  free energy    TOTEN  =      -175.09944355 eV

  energy without entropy =     -175.09944355  energy(sigma->0) =     -175.09944355


--------------------------------------------------------------------------------------------------------




--------------------------------------- Iteration      1(   6)  ---------------------------------------


    POTLOK:  cpu time    0.0468: real time    0.0484
    SETDIJ:  cpu time    0.0124: real time    0.0125
atom =   1  type =  1  l = 0
 
 onsite density matrix
 
spin component  1
 
  1.0573
 
spin component  2
 
  1.0563
 
 occupancies and eigenvectors
 
  o =  1.0563  v =  0.0000  1.0000      0.0000  0.0000
  o =  1.0573  v =  1.0000  0.0000      0.0000  0.0000
atom =   2  type =  1  l = 0
 
 onsite density matrix
 
spin component  1
 
  1.0573
 
spin component  2
 
  1.0563
 
 occupancies and eigenvectors
 
  o =  1.0563  v =  0.0000  1.0000      0.0000  0.0000
  o =  1.0573  v =  1.0000  0.0000      0.0000  0.0000
atom =   3  type =  1  l = 0
 
 onsite density matrix
 
spin component  1
 
  1.0573
 
spin component  2
 
  1.0563
 
 occupancies and eigenvectors
 
  o =  1.0563  v =  0.0000  1.0000      0.0000  0.0000
  o =  1.0573  v =  1.0000  0.0000      0.0000  0.0000
atom =   4  type =  1  l = 0
 
 onsite density matrix
 
spin component  1
 
  1.0573
 
spin component  2
 
  1.0563
 
 occupancies and eigenvectors
 
  o =  1.0563  v =  0.0000  1.0000      0.0000  0.0000
  o =  1.0573  v =  1.0000  0.0000      0.0000  0.0000
atom =   5  type =  2  l = 2
 
 onsite density matrix
 
spin component  1
 
  0.9748 -0.0000  0.0000  0.0000  0.0000
 -0.0000  0.9775 -0.0000  0.0000  0.0000
  0.0000 -0.0000  0.4337  0.0000 -0.0491
  0.0000  0.0000  0.0000  0.9727 -0.0000
  0.0000  0.0000 -0.0491 -0.0000  0.4196
 
spin component  2
 
  0.0195  0.0000 -0.0000 -0.0000 -0.0000
  0.0000  0.0187  0.0000 -0.0000 -0.0000
 -0.0000  0.0000  0.3932 -0.0000  0.0333
 -0.0000 -0.0000 -0.0000  0.0144  0.0000
 -0.0000 -0.0000  0.0333  0.0000  0.4033
 
 occupancies and eigenvectors
 
  o =  0.0144  v =  0.0000  0.0000  0.0000  0.0000  0.0000  0.0000 -0.0000  0.0000  1.0000  0.0000      0.0000  0.0000  0.0000  0.0000  0.0000  0.0000  0.0000  0.0000  0.0000  0.0000
  o =  0.0187  v =  0.0000  0.0000  0.0000  0.0000  0.0000 -0.0000  1.0000 -0.0000  0.0000  0.0000      0.0000  0.0000  0.0000  0.0000  0.0000  0.0000  0.0000  0.0000  0.0000  0.0000
  o =  0.0195  v =  0.0000  0.0000  0.0000  0.0000  0.0000  1.0000  0.0000  0.0000 -0.0000  0.0000      0.0000  0.0000  0.0000  0.0000  0.0000  0.0000  0.0000  0.0000  0.0000  0.0000
  o =  0.3646  v =  0.0000  0.0000  0.0000  0.0000  0.0000  0.0000  0.0000  0.7585  0.0000 -0.6517      0.0000  0.0000  0.0000  0.0000  0.0000  0.0000  0.0000  0.0000  0.0000  0.0000
  o =  0.3770  v =  0.0000 -0.0000  0.6550  0.0000  0.7557  0.0000  0.0000  0.0000  0.0000  0.0000      0.0000  0.0000  0.0000  0.0000  0.0000  0.0000  0.0000  0.0000  0.0000  0.0000
  o =  0.4319  v =  0.0000  0.0000  0.0000  0.0000  0.0000 -0.0000  0.0000  0.6517 -0.0000  0.7585      0.0000  0.0000  0.0000  0.0000  0.0000  0.0000  0.0000  0.0000  0.0000  0.0000
  o =  0.4763  v =  0.0000 -0.0000 -0.7557 -0.0000  0.6550  0.0000  0.0000  0.0000  0.0000  0.0000      0.0000  0.0000  0.0000  0.0000  0.0000  0.0000  0.0000  0.0000  0.0000  0.0000
  o =  0.9727  v =  0.0000 -0.0000 -0.0000  1.0000  0.0000  0.0000  0.0000  0.0000  0.0000  0.0000      0.0000  0.0000  0.0000  0.0000  0.0000  0.0000  0.0000  0.0000  0.0000  0.0000
  o =  0.9748  v =  1.0000  0.0000  0.0000  0.0000  0.0000  0.0000  0.0000  0.0000  0.0000  0.0000      0.0000  0.0000  0.0000  0.0000  0.0000  0.0000  0.0000  0.0000  0.0000  0.0000
  o =  0.9775  v =  0.0000  1.0000 -0.0000  0.0000  0.0000  0.0000  0.0000  0.0000  0.0000  0.0000      0.0000  0.0000  0.0000  0.0000  0.0000  0.0000  0.0000  0.0000  0.0000  0.0000
atom =   6  type =  2  l = 2
 
 onsite density matrix
 
spin component  1
 
  0.9727 -0.0000  0.0000 -0.0000  0.0000
 -0.0000  0.9775 -0.0000  0.0000  0.0000
  0.0000 -0.0000  0.3805  0.0000 -0.0185
 -0.0000  0.0000  0.0000  0.9748  0.0000
  0.0000  0.0000 -0.0185  0.0000  0.4727
 
spin component  2
 
  0.0144  0.0000 -0.0000  0.0000 -0.0000
  0.0000  0.0187  0.0000 -0.0000 -0.0000
 -0.0000  0.0000  0.4296  0.0000  0.0122
  0.0000 -0.0000  0.0000  0.0195 -0.0000
 -0.0000 -0.0000  0.0122 -0.0000  0.3669
 
 occupancies and eigenvectors
 
  o =  0.0144  v =  0.0000  0.0000  0.0000  0.0000  0.0000  1.0000  0.0000  0.0000  0.0000  0.0000      0.0000  0.0000  0.0000  0.0000  0.0000  0.0000  0.0000  0.0000  0.0000  0.0000
  o =  0.0187  v =  0.0000  0.0000  0.0000  0.0000  0.0000  0.0000  1.0000 -0.0000  0.0000  0.0000      0.0000  0.0000  0.0000  0.0000  0.0000  0.0000  0.0000  0.0000  0.0000  0.0000
  o =  0.0195  v =  0.0000  0.0000  0.0000  0.0000  0.0000  0.0000 -0.0000  0.0000  1.0000 -0.0000      0.0000  0.0000  0.0000  0.0000  0.0000  0.0000  0.0000  0.0000  0.0000  0.0000
  o =  0.3646  v =  0.0000  0.0000  0.0000  0.0000  0.0000  0.0000 -0.0000 -0.1851  0.0000  0.9827      0.0000  0.0000  0.0000  0.0000  0.0000  0.0000  0.0000  0.0000  0.0000  0.0000
  o =  0.3770  v =  0.0000  0.0000  0.9819  0.0000  0.1894  0.0000  0.0000  0.0000  0.0000  0.0000      0.0000  0.0000  0.0000  0.0000  0.0000  0.0000  0.0000  0.0000  0.0000  0.0000
  o =  0.4319  v =  0.0000  0.0000  0.0000  0.0000  0.0000  0.0000 -0.0000 -0.9827 -0.0000 -0.1851      0.0000  0.0000  0.0000  0.0000  0.0000  0.0000  0.0000  0.0000  0.0000  0.0000
  o =  0.4763  v =  0.0000 -0.0000 -0.1894 -0.0000  0.9819  0.0000  0.0000  0.0000  0.0000  0.0000      0.0000  0.0000  0.0000  0.0000  0.0000  0.0000  0.0000  0.0000  0.0000  0.0000
  o =  0.9727  v =  1.0000  0.0000  0.0000  0.0000  0.0000  0.0000  0.0000  0.0000  0.0000  0.0000      0.0000  0.0000  0.0000  0.0000  0.0000  0.0000  0.0000  0.0000  0.0000  0.0000
  o =  0.9748  v =  0.0000 -0.0000  0.0000 -1.0000  0.0000  0.0000  0.0000  0.0000  0.0000  0.0000      0.0000  0.0000  0.0000  0.0000  0.0000  0.0000  0.0000  0.0000  0.0000  0.0000
  o =  0.9775  v =  0.0000  1.0000 -0.0000 -0.0000 -0.0000  0.0000  0.0000  0.0000  0.0000  0.0000      0.0000  0.0000  0.0000  0.0000  0.0000  0.0000  0.0000  0.0000  0.0000  0.0000
atom =   7  type =  2  l = 2
 
 onsite density matrix
 
spin component  1
 
  0.9781  0.0000 -0.0000 -0.0000 -0.0000
  0.0000  0.9750 -0.0000  0.0000 -0.0000
 -0.0000 -0.0000  0.4591 -0.0000  0.0095
 -0.0000  0.0000 -0.0000  0.9781  0.0000
 -0.0000 -0.0000  0.0095  0.0000  0.4481
 
spin component  2
 
  0.0101 -0.0000  0.0000  0.0000  0.0000
 -0.0000  0.0127  0.0000 -0.0000 -0.0000
  0.0000  0.0000  0.3719  0.0000 -0.0063
  0.0000 -0.0000  0.0000  0.0101 -0.0000
  0.0000 -0.0000 -0.0063 -0.0000  0.3792
 
 occupancies and eigenvectors
 
  o =  0.0101  v =  0.0000  0.0000  0.0000  0.0000  0.0000  1.0000  0.0000  0.0000 -0.0078 -0.0000      0.0000  0.0000  0.0000  0.0000  0.0000  0.0000  0.0000  0.0000  0.0000  0.0000
  o =  0.0101  v =  0.0000  0.0000  0.0000  0.0000  0.0000  0.0078 -0.0000 -0.0000  1.0000  0.0000      0.0000  0.0000  0.0000  0.0000  0.0000  0.0000  0.0000  0.0000  0.0000  0.0000
  o =  0.0127  v =  0.0000  0.0000  0.0000  0.0000  0.0000  0.0000 -1.0000  0.0000 -0.0000 -0.0000      0.0000  0.0000  0.0000  0.0000  0.0000  0.0000  0.0000  0.0000  0.0000  0.0000
  o =  0.3683  v =  0.0000  0.0000  0.0000  0.0000  0.0000 -0.0000 -0.0000 -0.8660 -0.0000 -0.5000      0.0000  0.0000  0.0000  0.0000  0.0000  0.0000  0.0000  0.0000  0.0000  0.0000
  o =  0.3828  v =  0.0000  0.0000  0.0000  0.0000  0.0000  0.0000 -0.0000 -0.5000 -0.0000  0.8660      0.0000  0.0000  0.0000  0.0000  0.0000  0.0000  0.0000  0.0000  0.0000  0.0000
  o =  0.4426  v =  0.0000  0.0000 -0.5000 -0.0000  0.8660  0.0000  0.0000  0.0000  0.0000  0.0000      0.0000  0.0000  0.0000  0.0000  0.0000  0.0000  0.0000  0.0000  0.0000  0.0000
  o =  0.4646  v =  0.0000 -0.0000 -0.8660  0.0000 -0.5000  0.0000  0.0000  0.0000  0.0000  0.0000      0.0000  0.0000  0.0000  0.0000  0.0000  0.0000  0.0000  0.0000  0.0000  0.0000
  o =  0.9750  v =  0.0000  1.0000 -0.0000  0.0000 -0.0000  0.0000  0.0000  0.0000  0.0000  0.0000      0.0000  0.0000  0.0000  0.0000  0.0000  0.0000  0.0000  0.0000  0.0000  0.0000
  o =  0.9781  v =  1.0000  0.0000  0.0000  0.0000  0.0000  0.0000  0.0000  0.0000  0.0000  0.0000      0.0000  0.0000  0.0000  0.0000  0.0000  0.0000  0.0000  0.0000  0.0000  0.0000
  o =  0.9781  v =  0.0000 -0.0000  0.0000  1.0000 -0.0000  0.0000  0.0000  0.0000  0.0000  0.0000      0.0000  0.0000  0.0000  0.0000  0.0000  0.0000  0.0000  0.0000  0.0000  0.0000
atom =   8  type =  3  l = 2
 
 onsite density matrix
 
spin component  1
 
  0.8777 -0.0000 -0.0000 -0.0000  0.0000
 -0.0000  0.8800  0.0000  0.0000 -0.0000
 -0.0000  0.0000  1.3089 -0.0000 -0.0046
 -0.0000  0.0000 -0.0000  0.8777 -0.0000
  0.0000 -0.0000 -0.0046 -0.0000  1.3142
 
spin component  2
 
  0.8377 -0.0000 -0.0000  0.0000 -0.0000
 -0.0000  0.8322 -0.0000 -0.0000  0.0000
 -0.0000 -0.0000  0.1819 -0.0000 -0.0004
  0.0000 -0.0000 -0.0000  0.8377  0.0000
 -0.0000  0.0000 -0.0004  0.0000  0.1823
 
 occupancies and eigenvectors
 
  o =  0.1817  v =  0.0000  0.0000  0.0000  0.0000  0.0000  0.0000 -0.0000 -0.8660  0.0000 -0.5000      0.0000  0.0000  0.0000  0.0000  0.0000  0.0000  0.0000  0.0000  0.0000  0.0000
  o =  0.1825  v =  0.0000  0.0000  0.0000  0.0000  0.0000  0.0000  0.0000  0.5000 -0.0000 -0.8660      0.0000  0.0000  0.0000  0.0000  0.0000  0.0000  0.0000  0.0000  0.0000  0.0000
  o =  0.8322  v =  0.0000  0.0000  0.0000  0.0000  0.0000  0.0000  1.0000 -0.0000  0.0000 -0.0000      0.0000  0.0000  0.0000  0.0000  0.0000  0.0000  0.0000  0.0000  0.0000  0.0000
  o =  0.8377  v =  0.0000  0.0000  0.0000  0.0000  0.0000  1.0000  0.0000  0.0000  0.0000  0.0000      0.0000  0.0000  0.0000  0.0000  0.0000  0.0000  0.0000  0.0000  0.0000  0.0000
  o =  0.8377  v =  0.0000  0.0000  0.0000  0.0000  0.0000  0.0000 -0.0000  0.0000  1.0000 -0.0000      0.0000  0.0000  0.0000  0.0000  0.0000  0.0000  0.0000  0.0000  0.0000  0.0000
  o =  0.8777  v =  0.0000 -0.0000  0.0000 -1.0000  0.0000  0.0000  0.0000  0.0000  0.0000  0.0000      0.0000  0.0000  0.0000  0.0000  0.0000  0.0000  0.0000  0.0000  0.0000  0.0000
  o =  0.8777  v =  1.0000  0.0000  0.0000  0.0000  0.0000  0.0000  0.0000  0.0000  0.0000  0.0000      0.0000  0.0000  0.0000  0.0000  0.0000  0.0000  0.0000  0.0000  0.0000  0.0000
  o =  0.8800  v =  0.0000  1.0000 -0.0000 -0.0000 -0.0000  0.0000  0.0000  0.0000  0.0000  0.0000      0.0000  0.0000  0.0000  0.0000  0.0000  0.0000  0.0000  0.0000  0.0000  0.0000
  o =  1.3062  v =  0.0000  0.0000  0.8660  0.0000  0.5000  0.0000  0.0000  0.0000  0.0000  0.0000      0.0000  0.0000  0.0000  0.0000  0.0000  0.0000  0.0000  0.0000  0.0000  0.0000
  o =  1.3169  v =  0.0000 -0.0000  0.5000  0.0000 -0.8660  0.0000  0.0000  0.0000  0.0000  0.0000      0.0000  0.0000  0.0000  0.0000  0.0000  0.0000  0.0000  0.0000  0.0000  0.0000
atom =   9  type =  4  l = 0
 
 onsite density matrix
 
spin component  1
 
  0.8139
 
spin component  2
 
  0.8173
 
 occupancies and eigenvectors
 
  o =  0.8139  v =  1.0000  0.0000      0.0000  0.0000
  o =  0.8173  v =  0.0000  1.0000      0.0000  0.0000
atom =  10  type =  4  l = 0
 
 onsite density matrix
 
spin component  1
 
  0.8157
 
spin component  2
 
  0.8148
 
 occupancies and eigenvectors
 
  o =  0.8148  v =  0.0000  1.0000      0.0000  0.0000
  o =  0.8157  v =  1.0000  0.0000      0.0000  0.0000
atom =  11  type =  4  l = 0
 
 onsite density matrix
 
spin component  1
 
  0.8139
 
spin component  2
 
  0.8173
 
 occupancies and eigenvectors
 
  o =  0.8139  v =  1.0000  0.0000      0.0000  0.0000
  o =  0.8173  v =  0.0000  1.0000      0.0000  0.0000
atom =  12  type =  4  l = 0
 
 onsite density matrix
 
spin component  1
 
  0.8157
 
spin component  2
 
  0.8148
 
 occupancies and eigenvectors
 
  o =  0.8148  v =  0.0000  1.0000      0.0000  0.0000
  o =  0.8157  v =  1.0000  0.0000      0.0000  0.0000
atom =  13  type =  4  l = 0
 
 onsite density matrix
 
spin component  1
 
  0.8139
 
spin component  2
 
  0.8173
 
 occupancies and eigenvectors
 
  o =  0.8139  v =  1.0000  0.0000      0.0000  0.0000
  o =  0.8173  v =  0.0000  1.0000      0.0000  0.0000
atom =  14  type =  4  l = 0
 
 onsite density matrix
 
spin component  1
 
  0.8139
 
spin component  2
 
  0.8173
 
 occupancies and eigenvectors
 
  o =  0.8139  v =  1.0000  0.0000      0.0000  0.0000
  o =  0.8173  v =  0.0000  1.0000      0.0000  0.0000
atom =  15  type =  4  l = 0
 
 onsite density matrix
 
spin component  1
 
  0.8157
 
spin component  2
 
  0.8148
 
 occupancies and eigenvectors
 
  o =  0.8148  v =  0.0000  1.0000      0.0000  0.0000
  o =  0.8157  v =  1.0000  0.0000      0.0000  0.0000
atom =  16  type =  4  l = 0
 
 onsite density matrix
 
spin component  1
 
  0.8157
 
spin component  2
 
  0.8148
 
 occupancies and eigenvectors
 
  o =  0.8148  v =  0.0000  1.0000      0.0000  0.0000
  o =  0.8157  v =  1.0000  0.0000      0.0000  0.0000
atom =  17  type =  4  l = 0
 
 onsite density matrix
 
spin component  1
 
  0.8140
 
spin component  2
 
  0.8170
 
 occupancies and eigenvectors
 
  o =  0.8140  v =  1.0000  0.0000      0.0000  0.0000
  o =  0.8170  v =  0.0000  1.0000      0.0000  0.0000
atom =  18  type =  4  l = 0
 
 onsite density matrix
 
spin component  1
 
  0.8148
 
spin component  2
 
  0.8167
 
 occupancies and eigenvectors
 
  o =  0.8148  v =  1.0000  0.0000      0.0000  0.0000
  o =  0.8167  v =  0.0000  1.0000      0.0000  0.0000
atom =  19  type =  4  l = 0
 
[...]
 -0.002   0.003   0.003  -0.025   0.000   0.001   0.010   0.000   0.000  -0.001   0.004   0.000  -0.001  -0.000   0.001  -0.002
 -0.000   0.000   0.000   0.000   0.015   0.000   0.000  -0.006  -0.029   0.000  -0.000  -0.031  -0.000   0.013  -0.000   0.000
 -0.000   0.002   0.006  -0.001   0.000  -0.001   0.000   0.000  -0.000  -0.040   0.001  -0.000  -0.048   0.000   0.018  -0.000
 -0.000   0.000  -0.000  -0.000  -0.020  -0.000   0.000   0.007  -0.024   0.000   0.000  -0.022   0.000   0.011  -0.000   0.000
  0.002  -0.002  -0.027  -0.002   0.000   0.010   0.001   0.000  -0.000  -0.034   0.037   0.000  -0.017  -0.000   0.015  -0.017
  0.000  -0.000  -0.000  -0.000   0.003  -0.000   0.000   0.002  -0.016  -0.000  -0.000   0.016   0.000   0.006  -0.000   0.000
  0.002  -0.005  -0.022   0.009  -0.000   0.008  -0.001   0.000  -0.000   0.046  -0.045   0.000   0.032  -0.000  -0.020   0.020
  0.003  -0.005  -0.004   0.035   0.000  -0.001  -0.013   0.000   0.000   0.001  -0.006   0.000   0.001   0.000  -0.001   0.003
  0.000   0.000  -0.000   0.000  -0.021  -0.000  -0.000   0.008   0.040   0.000  -0.000   0.042   0.000  -0.018   0.000  -0.000
  0.001  -0.003  -0.008   0.001   0.000   0.001  -0.001   0.000   0.000   0.058  -0.001  -0.000   0.068   0.000  -0.025   0.000
 -0.000   0.000   0.000   0.000   0.027  -0.000  -0.000  -0.010   0.033   0.000  -0.000   0.031   0.000  -0.015   0.000  -0.000
 total augmentation occupancy for first ion, spin component:           2
  0.000  -0.000  -0.000   0.000   0.000   0.000  -0.000   0.000   0.000  -0.000  -0.000   0.000   0.000   0.000   0.000   0.000
 -0.000   0.001  -0.000   0.000   0.000   0.000  -0.000  -0.000   0.000  -0.002  -0.001   0.000   0.002   0.000   0.001   0.000
 -0.000  -0.000   0.000  -0.000  -0.000  -0.000   0.000   0.000  -0.000  -0.000  -0.000  -0.000   0.000  -0.000  -0.000   0.000
  0.000   0.000  -0.000   0.000   0.000   0.000  -0.000   0.000  -0.000   0.000   0.000   0.000  -0.000   0.000   0.000   0.000
  0.000  -0.000  -0.000   0.000   0.000   0.000   0.000  -0.000   0.000   0.000   0.000  -0.000  -0.000   0.000  -0.000   0.000
  0.000   0.000  -0.000   0.000   0.000   0.000  -0.000   0.000   0.000   0.000  -0.000   0.000  -0.000   0.000  -0.000   0.000
 -0.000  -0.000   0.000  -0.000   0.000  -0.000   0.000   0.000   0.000  -0.000  -0.000  -0.000   0.000   0.000   0.000   0.000
  0.000  -0.000   0.000   0.000  -0.000   0.000   0.000   0.000  -0.000  -0.000   0.000   0.000   0.000   0.000   0.000  -0.000
  0.000   0.000   0.000  -0.000   0.000  -0.000   0.000  -0.000  -0.002   0.000   0.000  -0.008   0.000   0.002  -0.000  -0.000
 -0.000  -0.002  -0.000   0.000   0.000   0.000  -0.000   0.000   0.000  -0.004   0.004   0.000  -0.006  -0.000   0.002  -0.001
 -0.000  -0.001  -0.000   0.000  -0.000  -0.000  -0.000   0.000   0.000   0.004   0.029   0.000  -0.000   0.000  -0.001  -0.010
  0.000  -0.000  -0.000   0.000  -0.000   0.000   0.000   0.000  -0.008   0.000   0.000  -0.002   0.000   0.003  -0.000   0.000
  0.000   0.002   0.000  -0.000  -0.000  -0.000   0.000   0.000   0.000  -0.006  -0.000   0.000   0.030   0.000   0.002   0.000
  0.000   0.000   0.000   0.000   0.000  -0.000   0.000   0.000   0.002  -0.000   0.000   0.003  -0.000  -0.001  -0.000   0.000
  0.000   0.001  -0.000   0.000  -0.000  -0.000   0.000  -0.000  -0.000   0.002  -0.001   0.000   0.002  -0.000  -0.001   0.000
  0.000   0.000   0.000   0.000   0.000   0.000   0.000   0.000  -0.000  -0.001  -0.010  -0.000   0.000  -0.000   0.000   0.004
 -0.000   0.000  -0.000   0.000  -0.000  -0.000  -0.000  -0.000   0.003   0.000   0.000   0.002   0.000  -0.001   0.000   0.000
 -0.000  -0.001   0.000  -0.000  -0.000   0.000  -0.000   0.000   0.000   0.002   0.000   0.000  -0.010  -0.000  -0.001  -0.000
  0.000   0.001   0.000   0.000  -0.000   0.001   0.000  -0.000   0.000  -0.002   0.001   0.000  -0.001   0.000   0.000  -0.000
 -0.000   0.000   0.000  -0.000   0.000  -0.000   0.000   0.001  -0.001   0.000  -0.000   0.001  -0.000   0.000  -0.000   0.000
  0.000   0.000   0.000  -0.000   0.000   0.000  -0.000  -0.000   0.000   0.000  -0.001   0.000   0.000   0.000  -0.000   0.000
  0.000   0.001  -0.000  -0.001  -0.000  -0.000  -0.001  -0.000  -0.000  -0.001   0.000   0.000   0.000   0.000   0.000  -0.000
 -0.000   0.000   0.000   0.000   0.000   0.000   0.000   0.000   0.001   0.000  -0.000  -0.000  -0.000  -0.000   0.000   0.000
 -0.000  -0.000   0.000  -0.000  -0.000   0.000  -0.000   0.000  -0.000   0.001  -0.000   0.000   0.002  -0.000  -0.000   0.000
 -0.000   0.000   0.000   0.000  -0.001   0.000  -0.000  -0.001  -0.000  -0.000  -0.000   0.001   0.000  -0.000   0.000  -0.000
 -0.000  -0.002   0.000   0.000  -0.000  -0.001  -0.000   0.000   0.000   0.003  -0.001   0.000   0.002  -0.000  -0.001   0.000
  0.000  -0.000   0.000   0.000   0.001  -0.000  -0.000  -0.001   0.003  -0.000  -0.000  -0.003  -0.000  -0.001   0.000  -0.000
  0.000  -0.000   0.000   0.000   0.000  -0.001   0.000   0.000   0.000  -0.000   0.003   0.000  -0.001   0.000   0.000  -0.001
 -0.000  -0.002  -0.000  -0.000   0.000   0.000   0.001   0.000   0.000   0.002  -0.002  -0.000  -0.000   0.000  -0.001   0.000
  0.000   0.000   0.000   0.000   0.000   0.000   0.000  -0.001  -0.002  -0.000  -0.000   0.001   0.000   0.001   0.000  -0.000
  0.000   0.001   0.000   0.000   0.000  -0.000   0.000   0.000  -0.000  -0.002   0.000  -0.000  -0.004   0.000   0.001  -0.000
 -0.000   0.000   0.000   0.000  -0.000   0.000   0.000   0.001   0.001   0.000   0.000  -0.002   0.000  -0.000  -0.000   0.000


------------------------ aborting loop because EDIFF is reached ----------------------------------------


 


 total charge     
 
# of ion       s       p       d       f       tot
--------------------------------------------------
    1        1.999   5.696   0.479   0.186   8.360
    2        1.999   5.696   0.479   0.186   8.360
    3        1.999   5.696   0.480   0.186   8.360
    4        1.999   5.696   0.479   0.186   8.360
    5        0.333   0.516   4.889   0.000   5.738
    6        0.333   0.512   4.874   0.000   5.720
    7        0.312   0.468   4.888   0.000   5.668
    8        0.387   0.551   8.323   0.000   9.261
    9        1.565   3.464   0.000   0.000   5.029
   10        1.561   3.459   0.000   0.000   5.019
   11        1.565   3.464   0.000   0.000   5.029
   12        1.561   3.459   0.000   0.000   5.019
   13        1.563   3.444   0.000   0.000   5.007
   14        1.563   3.444   0.000   0.000   5.007
   15        1.560   3.457   0.000   0.000   5.017
   16        1.560   3.457   0.000   0.000   5.017
   17        1.563   3.449   0.000   0.000   5.012
   18        1.565   3.460   0.000   0.000   5.024
   19        1.564   3.457   0.000   0.000   5.021
   20        1.554   3.457   0.000   0.000   5.011
--------------------------------------------------
tot         28.103  66.302  24.891   0.743 120.039

 


 magnetization (x)
 
# of ion       s       p       d       f       tot
--------------------------------------------------
    1        0.000   0.001   0.010   0.005   0.016
    2        0.000   0.001   0.010   0.005   0.016
    3        0.000   0.001   0.010   0.005   0.016
    4        0.000   0.001   0.010   0.005   0.016
    5        0.026   0.032   3.598   0.000   3.656
    6        0.025   0.029   3.577   0.000   3.630
    7        0.023   0.024   3.783   0.000   3.830
    8        0.011   0.002   1.717   0.000   1.730
    9        0.008  -0.033   0.000   0.000  -0.025
   10        0.006  -0.013   0.000   0.000  -0.007
   11        0.008  -0.033   0.000   0.000  -0.025
   12        0.006  -0.013   0.000   0.000  -0.007
   13        0.004  -0.038   0.000   0.000  -0.035
   14        0.004  -0.038   0.000   0.000  -0.035
   15        0.004  -0.002   0.000   0.000   0.002
   16        0.004  -0.002   0.000   0.000   0.002
   17        0.005  -0.041   0.000   0.000  -0.037
   18        0.006  -0.036   0.000   0.000  -0.029
   19        0.005  -0.037   0.000   0.000  -0.031
   20        0.006   0.031   0.000   0.000   0.037
--------------------------------------------------
tot          0.151  -0.165  12.713   0.021  12.720

 
    CHARGE:  cpu time    0.0801: real time    0.0806
    FORLOC:  cpu time    0.0059: real time    0.0059
    FORNL :  cpu time    0.4058: real time    0.4089
    STRESS:  cpu time    1.2163: real time    1.2212
    FORCOR:  cpu time    0.0517: real time    0.0535
    FORHAR:  cpu time    0.0108: real time    0.0109
    MIXING:  cpu time    0.0038: real time    0.0038
    OFIELD:  cpu time    0.0001: real time    0.0003

  FORCE on cell =-STRESS in cart. coord.  units (eV):
  Direction    XX          YY          ZZ          XY          YZ          ZX
  --------------------------------------------------------------------------------------
  Alpha Z   646.44463   646.44463   646.44463
  Ewald   -3261.99597 -3308.03008 -3308.03008     0.00000    -0.00000     0.00000
  Hartree   731.07705   683.04103   683.04103    -0.00000    -0.00000    -0.00000
  E(xc)    -677.05882  -677.11746  -677.11746    -0.00000    -0.00000     0.00000
  Local    -438.26906  -341.06213  -341.06213     0.00000     0.00000     0.00000
  n-local   264.25891   264.61984   264.55486     0.60374     0.06583     0.28195
  augment   182.07160   180.36891   180.36891     0.00000    -0.00000    -0.00000
  Kinetic  2553.88478  2549.20391  2552.58791    -1.59850    -0.81647    -0.81558
  Fock        0.00000     0.00000     0.00000     0.00000     0.00000     0.00000
  -------------------------------------------------------------------------------------
  Total       0.41312    -0.87183    -0.87183     0.00000     0.00000     0.00000
  in kB       2.76928    -5.84420    -5.84420     0.00000     0.00000     0.00000
  external pressure =       -2.97 kB  Pullay stress =        0.00 kB


 VOLUME and BASIS-vectors are now :
 -----------------------------------------------------------------------------
  energy-cutoff  :      520.00
  volume of cell :      239.01
      direct lattice vectors                 reciprocal lattice vectors
     3.911487672  0.000000000  0.000000000     0.255657204  0.000000000  0.000000000
     0.000000000  7.816964834  0.000000000     0.000000000  0.127926890  0.000000000
     0.000000000  0.000000000  7.816964834     0.000000000  0.000000000  0.127926890

  length of vectors
     3.911487672  7.816964834  7.816964834     0.255657204  0.127926890  0.127926890


 FORCES acting on ions
    electron-ion (+dipol)            ewald-force                    non-local-force                 convergence-correction
 -----------------------------------------------------------------------------------------------
   -.785E-14 -.629E+02 0.629E+02   0.222E-13 0.624E+02 -.624E+02   0.325E-18 0.384E+00 -.384E+00   0.114E-13 0.691E-01 -.691E-01
   -.815E-15 0.629E+02 -.629E+02   -.279E-13 -.624E+02 0.624E+02   0.108E-18 -.384E+00 0.384E+00   0.217E-14 -.691E-01 0.691E-01
   -.395E-14 -.629E+02 -.629E+02   0.137E-13 0.624E+02 0.624E+02   0.217E-18 0.384E+00 0.384E+00   0.832E-14 0.691E-01 0.691E-01
   -.323E-14 0.629E+02 0.629E+02   -.131E-13 -.624E+02 -.624E+02   0.163E-18 -.384E+00 -.384E+00   0.775E-14 -.691E-01 -.691E-01
   0.622E-13 -.328E-12 -.558E-12   -.306E-14 0.293E-14 0.271E-13   0.000E+00 -.339E-20 -.265E-20   0.139E-13 -.837E-13 0.296E-12
   0.642E-13 -.635E-13 0.704E-12   0.189E-14 -.240E-14 0.357E-13   0.000E+00 0.339E-20 0.000E+00   0.109E-13 0.126E-12 -.193E-12
   0.623E-13 0.160E-11 0.157E-11   -.298E-15 0.846E-13 -.356E-13   0.000E+00 0.339E-20 0.508E-20   0.155E-13 -.104E-12 -.267E-12
   0.292E-12 0.452E-11 0.129E-12   0.532E-14 -.322E-13 -.909E-14   0.000E+00 0.593E-20 -.678E-20   0.544E-13 0.179E-12 0.350E-12
   0.122E-12 0.191E-11 -.253E+02   -.769E-14 0.374E-13 0.259E+02   0.000E+00 0.173E-17 -.621E+00   0.202E-13 -.609E-13 0.440E-01
   0.117E-12 0.184E-11 -.554E+02   -.302E-14 -.378E-13 0.503E+02   0.000E+00 0.163E-18 0.513E+01   0.192E-13 0.134E-12 0.328E-01
   0.115E-12 0.202E-11 0.253E+02   0.171E-14 -.192E-13 -.259E+02   0.000E+00 0.000E+00 0.621E+00   0.165E-13 -.702E-13 -.440E-01
   0.115E-12 0.172E-11 0.554E+02   0.101E-13 -.910E-14 -.503E+02   0.000E+00 -.108E-18 -.513E+01   0.174E-13 0.113E-12 -.328E-01
   0.117E-12 -.253E+02 0.376E-07   -.399E-13 0.259E+02 0.343E-13   -.217E-18 -.621E+00 -.867E-18   0.212E-13 0.440E-01 -.227E-12
   0.112E-12 0.253E+02 -.376E-07   0.268E-13 -.259E+02 0.128E-13   0.217E-18 0.621E+00 -.434E-18   0.284E-13 -.440E-01 -.197E-12
   0.114E-12 -.554E+02 -.516E-06   0.322E-13 0.503E+02 -.198E-13   -.434E-18 0.513E+01 0.108E-18   0.194E-13 0.328E-01 0.276E-12
   0.119E-12 0.554E+02 0.516E-06   -.313E-13 -.503E+02 0.297E-13   0.000E+00 -.513E+01 -.108E-18   0.199E-13 -.328E-01 0.255E-12
   -.385E-14 0.689E-12 0.687E-12   0.798E-14 -.239E-13 -.537E-14   0.000E+00 0.000E+00 0.271E-19   0.811E-14 -.604E-13 -.246E-12
   -.556E-14 0.414E-12 0.634E-12   0.149E-14 -.260E-13 0.412E-14   0.000E+00 0.136E-19 0.136E-19   0.158E-13 0.128E-12 -.200E-12
   -.297E-14 0.639E-12 0.403E-12   0.522E-14 0.296E-13 -.184E-13   0.339E-20 0.339E-20 -.551E-20   0.855E-14 -.597E-13 0.264E-12
   -.487E-14 0.369E-12 0.356E-12   -.475E-14 -.436E-13 -.196E-13   0.000E+00 -.678E-20 0.271E-19   0.612E-14 0.129E-12 0.213E-12
 -----------------------------------------------------------------------------------------------
   0.138E-11 0.208E-10 0.858E-11   -.249E-14 -.356E-13 0.355E-14   0.383E-18 -.178E-14 -.124E-17   0.325E-12 0.229E-12 0.257E-12
 
 
 POSITION                                       TOTAL-FORCE (eV/Angst)
 -----------------------------------------------------------------------------------
      0.00000      3.86457      0.04391         0.000000     -0.037239      0.037239
      0.00000      0.04391      3.86457        -0.000000      0.037239     -0.037239
      0.00000      3.86457      3.86457        -0.000000     -0.037239     -0.037239
      0.00000      0.04391      0.04391         0.000000      0.037239      0.037239
      1.95574      5.86272      1.95424        -0.000000     -0.000000     -0.000000
      1.95574      1.95424      5.86272        -0.000000     -0.000000     -0.000000
      1.95574      5.86272      5.86272        -0.000000     -0.000000     -0.000000
      1.95574      1.95424      1.95424        -0.000000      0.000000     -0.000000
      1.95574      5.86272      3.90240         0.000000     -0.000000      0.028330
      1.95574      1.95424      3.95444        -0.000000      0.000000      0.003108
      1.95574      5.86272      0.00608         0.000000     -0.000000     -0.028330
      1.95574      1.95424      7.77101        -0.000000     -0.000000     -0.003108
      1.95574      3.90240      5.86272        -0.000000      0.028330     -0.000000
      1.95574      0.00608      5.86272        -0.000000     -0.028330     -0.000000
      1.95574      3.95444      1.95424        -0.000000      0.003108     -0.000000
      1.95574      7.77101      1.95424        -0.000000     -0.003108     -0.000000
      0.00000      5.86272      5.86272        -0.000000     -0.000000     -0.000000
      0.00000      1.95424      5.86272        -0.000000      0.000000     -0.000000
      0.00000      5.86272      1.95424        -0.000000      0.000000     -0.000000
      0.00000      1.95424      1.95424        -0.000000     -0.000000     -0.000000
 -----------------------------------------------------------------------------------
    total drift:                                0.000000      0.000000      0.000000


--------------------------------------------------------------------------------------------------------



  FREE ENERGIE OF THE ION-ELECTRON SYSTEM (eV)
  ---------------------------------------------------
  free  energy   TOTEN  =      -153.05354270 eV

  energy  without entropy=     -153.05354270  energy(sigma->0) =     -153.05354270
 


--------------------------------------------------------------------------------------------------------


    POTLOK:  cpu time    0.0575: real time    0.0577


--------------------------------------------------------------------------------------------------------


     LOOP+:  cpu time   35.0122: real time   35.1908
    4ORBIT:  cpu time    0.0000: real time    0.0000
 


 total charge     
 
# of ion       s       p       d       f       tot
--------------------------------------------------
    1        1.999   5.696   0.479   0.186   8.360
    2        1.999   5.696   0.479   0.186   8.360
    3        1.999   5.696   0.480   0.186   8.360
    4        1.999   5.696   0.479   0.186   8.360
    5        0.333   0.516   4.889   0.000   5.738
    6        0.333   0.512   4.874   0.000   5.720
    7        0.312   0.468   4.888   0.000   5.668
    8        0.387   0.551   8.323   0.000   9.261
    9        1.565   3.464   0.000   0.000   5.029
   10        1.561   3.459   0.000   0.000   5.019
   11        1.565   3.464   0.000   0.000   5.029
   12        1.561   3.459   0.000   0.000   5.019
   13        1.563   3.444   0.000   0.000   5.007
   14        1.563   3.444   0.000   0.000   5.007
   15        1.560   3.457   0.000   0.000   5.017
   16        1.560   3.457   0.000   0.000   5.017
   17        1.563   3.449   0.000   0.000   5.012
   18        1.565   3.460   0.000   0.000   5.024
   19        1.564   3.457   0.000   0.000   5.021
   20        1.554   3.457   0.000   0.000   5.011
--------------------------------------------------
tot         28.103  66.302  24.891   0.743 120.039

 


 magnetization (x)
 
# of ion       s       p       d       f       tot
--------------------------------------------------
    1        0.000   0.001   0.010   0.005   0.016
    2        0.000   0.001   0.010   0.005   0.016
    3        0.000   0.001   0.010   0.005   0.016
    4        0.000   0.001   0.010   0.005   0.016
    5        0.026   0.032   3.598   0.000   3.656
    6        0.025   0.029   3.577   0.000   3.630
    7        0.023   0.024   3.783   0.000   3.830
    8        0.011   0.002   1.717   0.000   1.730
    9        0.008  -0.033   0.000   0.000  -0.025
   10        0.006  -0.013   0.000   0.000  -0.007
   11        0.008  -0.033   0.000   0.000  -0.025
   12        0.006  -0.013   0.000   0.000  -0.007
   13        0.004  -0.038   0.000   0.000  -0.035
   14        0.004  -0.038   0.000   0.000  -0.035
   15        0.004  -0.002   0.000   0.000   0.002
   16        0.004  -0.002   0.000   0.000   0.002
   17        0.005  -0.041   0.000   0.000  -0.037
   18        0.006  -0.036   0.000   0.000  -0.029
   19        0.005  -0.037   0.000   0.000  -0.031
   20        0.006   0.031   0.000   0.000   0.037
--------------------------------------------------
tot          0.151  -0.165  12.713   0.021  12.720

 
 BZINTS: Fermi energy:  7.988652;147.000000 electrons
         Band energy:-262.751773;  BLOECHL correction: -0.098669

 total amount of memory used by VASP MPI-rank0    51068. kBytes
=======================================================================

   base      :      30000. kBytes
   nonlr-proj:       4506. kBytes
   fftplans  :       1809. kBytes
   grid      :       5074. kBytes
   one-center:        196. kBytes
   wavefun   :       9483. kBytes
 
  
  
 General timing and accounting informations for this job:
 ========================================================
  
                  Total CPU time used (sec):       39.927
                            User time (sec):       38.274
                          System time (sec):        1.653
                         Elapsed time (sec):       40.240
  
                   Maximum memory used (kb):       86380.
                   Average memory used (kb):           0.
  
                          Minor page faults:        31742
                          Major page faults:            0
                 Voluntary context switches:          953
