 vasp.5.4.4.18Apr17-6-g9f103f2a35 (build Oct 03 2018 13:58:34) complex          
  
 executed on             LinuxIFC date 2019.06.04  01:03:56
 running on   40 total cores
 distrk:  each k-point on   20 cores,    2 groups
 distr:  one band on NCORES_PER_BAND=  10 cores,    2 groups


--------------------------------------------------------------------------------------------------------


 INCAR:
 POTCAR:    PAW_PBE La 06Sep2000                  
 POTCAR:    PAW_PBE Mn 06Sep2000                  
 POTCAR:    PAW_PBE Ni 02Aug2007                  
 POTCAR:    PAW_PBE O 08Apr2002                   

 ----------------------------------------------------------------------------- 
|                                                                             |
|           W    W    AA    RRRRR   N    N  II  N    N   GGGG   !!!           |
|           W    W   A  A   R    R  NN   N  II  NN   N  G    G  !!!           |
|           W    W  A    A  R    R  N N  N  II  N N  N  G       !!!           |
|           W WW W  AAAAAA  RRRRR   N  N N  II  N  N N  G  GGG   !            |
|           WW  WW  A    A  R   R   N   NN  II  N   NN  G    G                |
|           W    W  A    A  R    R  N    N  II  N    N   GGGG   !!!           |
|                                                                             |
|      You have enabled k-point parallelism (KPAR>1).                         |
|      This developmental code was originally  written by Paul Kent at ORNL,  |
|      and carefully double checked in Vienna.                                |
|      GW as well as linear response parallelism added by Martijn Marsman     |
|      and Georg Kresse.                                                      |
|      Carefully verify results versus KPAR=1.                                |
|      Report problems to Paul Kent and Vienna.                               |
|                                                                             |
 ----------------------------------------------------------------------------- 

 POTCAR:    PAW_PBE La 06Sep2000                  
   VRHFIN =La : [core=Kr4d]                                                     
   LEXCH  = PE                                                                  
   EATOM  =   865.9763 eV,   63.6475 Ry                                         
                                                                                
   TITEL  = PAW_PBE La 06Sep2000                                                
   LULTRA =        F    use ultrasoft PP ?                                      
   IUNSCR =        1    unscreen: 0-lin 1-nonlin 2-no                           
   RPACOR =    2.300    partial core radius                                     
   POMASS =  138.900; ZVAL   =   11.000    mass and valenz                      
   RCORE  =    2.800    outmost cutoff radius                                   
   RWIGS  =    2.900; RWIGS  =    1.535    wigner-seitz radius (au A)           
   ENMAX  =  219.292; ENMIN  =  164.469 eV                                      
   RCLOC  =    1.601    cutoff for local pot                                    
   LCOR   =        T    correct aug charges                                     
   LPAW   =        T    paw PP                                                  
   EAUG   =  583.575                                                            
   DEXC   =    0.000                                                            
   RMAX   =    2.853    core radius for proj-oper                               
   RAUG   =    1.300    factor for augmentation sphere                          
   RDEP   =    2.802    radius for radial grids                                 
   RDEPT  =    2.156    core radius for aug-charge                              
                                                                                
   Atomic configuration                                                         
   14 entries                                                                   
     n  l   j            E        occ.                                          
     1  0  0.50    -38741.0879   2.0000                                         
     2  0  0.50     -6166.6801   2.0000                                         
     2  1  1.50     -5526.1593   6.0000                                         
     3  0  0.50     -1319.0200   2.0000                                         
     3  1  1.50     -1114.5963   6.0000                                         
     3  2  2.50      -821.1793  10.0000                                         
     4  0  0.50      -266.3851   2.0000                                         
     4  1  1.50      -199.9276   6.0000                                         
     4  2  2.50      -103.8239  10.0000                                         
     5  0  0.50       -38.9172   2.0000                                         
     6  0  0.50        -3.6792   2.0000                                         
     5  1  1.50       -22.3948   6.0000                                         
     5  2  2.50        -3.0911   0.9999                                         
     4  3  2.50        -4.3603   0.0001                                         
   Description                                                                  
     l       E           TYP  RCUT    TYP  RCUT                                 
     0    -38.9171645     23  2.800                                             
     0     -3.6792381     23  2.800                                             
     1    -22.3948300     23  2.500                                             
     1     27.2116520     23  2.500                                             
     2     -3.0910934     23  2.500                                             
     2      1.0119135     23  2.500                                             
     3     -4.3602911     23  2.800                                             
     3     -5.7208737     23  2.800                                             
  local pseudopotential read in
  partial core-charges read in
  partial kinetic energy density read in
  atomic valenz-charges read in
  non local Contribution for L=           0  read in
    real space projection operators read in
  non local Contribution for L=           0  read in
    real space projection operators read in
  non local Contribution for L=           1  read in
    real space projection operators read in
  non local Contribution for L=           1  read in
    real space projection operators read in
  non local Contribution for L=           2  read in
    real space projection operators read in
  non local Contribution for L=           2  read in
    real space projection operators read in
  non local Contribution for L=           3  read in
    real space projection operators read in
  non local Contribution for L=           3  read in
    real space projection operators read in
    PAW grid and wavefunctions read in
 
   number of l-projection  operators is LMAX  =           8
   number of lm-projection operators is LMMAX =          32
 
 POTCAR:    PAW_PBE Mn 06Sep2000                  
   VRHFIN =Mn: d6 s1                                                            
   LEXCH  = PE                                                                  
   EATOM  =   416.7541 eV,   30.6306 Ry                                         
                                                                                
   TITEL  = PAW_PBE Mn 06Sep2000                                                
   LULTRA =        F    use ultrasoft PP ?                                      
   IUNSCR =        1    unscreen: 0-lin 1-nonlin 2-no                           
   RPACOR =    2.000    partial core radius                                     
   POMASS =   54.938; ZVAL   =    7.000    mass and valenz                      
   RCORE  =    2.300    outmost cutoff radius                                   
   RWIGS  =    2.500; RWIGS  =    1.323    wigner-seitz radius (au A)           
   ENMAX  =  269.864; ENMIN  =  202.398 eV                                      
   RCLOC  =    1.725    cutoff for local pot                                    
   LCOR   =        T    correct aug charges                                     
   LPAW   =        T    paw PP                                                  
   EAUG   =  500.711                                                            
   DEXC   =    0.000                                                            
   RMAX   =    2.343    core radius for proj-oper                               
   RAUG   =    1.300    factor for augmentation sphere                          
   RDEP   =    2.338    radius for radial grids                                 
   RDEPT  =    1.911    core radius for aug-charge                              
                                                                                
   Atomic configuration                                                         
    9 entries                                                                   
     n  l   j            E        occ.                                          
     1  0  0.50     -6424.8288   2.0000                                         
     2  0  0.50      -739.1154   2.0000                                         
     2  1  1.50      -625.3949   6.0000                                         
     3  0  0.50       -81.6100   2.0000                                         
     3  1  1.50       -50.4667   6.0000                                         
     3  2  2.50        -3.3745   6.0000                                         
     4  0  0.50        -4.1331   1.0000                                         
     4  1  0.50        -4.0817   0.0000                                         
     4  3  2.50        -1.3606   0.0000                                         
   Description                                                                  
     l       E           TYP  RCUT    TYP  RCUT                                 
     2     -3.3744664     23  2.300                                             
     2     -4.7350490     23  2.300                                             
     0     -4.1331408     23  2.300                                             
     0      7.6656614     23  2.300                                             
     1     -2.7211652     23  2.300                                             
     1     20.4087390     23  2.300                                             
  local pseudopotential read in
  partial core-charges read in
  partial kinetic energy density read in
  atomic valenz-charges read in
  non local Contribution for L=           2  read in
    real space projection operators read in
  non local Contribution for L=           2  read in
    real space projection operators read in
  non local Contribution for L=           0  read in
    real space projection operators read in
  non local Contribution for L=           0  read in
    real space projection operators read in
  non local Contribution for L=           1  read in
    real space projection operators read in
  non local Contribution for L=           1  read in
    real space projection operators read in
    PAW grid and wavefunctions read in
 
   number of l-projection  operators is LMAX  =           6
   number of lm-projection operators is LMMAX =          18
 
 POTCAR:    PAW_PBE Ni 02Aug2007                  
   VRHFIN =Ni:                                                                  
   LEXCH  = PE                                                                  
   EATOM  =  1077.6739 eV,   79.2068 Ry                                         
                                                                                
   TITEL  = PAW_PBE Ni 02Aug2007                                                
   LULTRA =        F    use ultrasoft PP ?                                      
   IUNSCR =        1    unscreen: 0-lin 1-nonlin 2-no                           
   RPACOR =    2.000    partial core radius                                     
   POMASS =   58.690; ZVAL   =   10.000    mass and valenz                      
   RCORE  =    2.300    outmost cutoff radius                                   
   RWIGS  =    2.430; RWIGS  =    1.286    wigner-seitz radius (au A)           
   ENMAX  =  269.532; ENMIN  =  202.149 eV                                      
   RCLOC  =    1.201    cutoff for local pot                                    
   LCOR   =        T    correct aug charges                                     
   LPAW   =        T    paw PP                                                  
   EAUG   =  544.565                                                            
   DEXC   =    0.000                                                            
   RMAX   =    2.357    core radius for proj-oper                               
   RAUG   =    1.300    factor for augmentation sphere                          
   RDEP   =    2.390    radius for radial grids                                 
   RDEPT  =    1.838    core radius for aug-charge                              
                                                                                
   Atomic configuration                                                         
    9 entries                                                                   
     n  l   j            E        occ.                                          
     1  0  0.50     -8206.4253   2.0000                                         
     2  0  0.50      -976.1748   2.0000                                         
     2  1  1.50      -839.0571   6.0000                                         
     3  0  0.50      -105.9991   2.0000                                         
     3  1  1.50       -66.4603   6.0000                                         
     3  2  2.50        -4.6458   9.0000                                         
     4  0  0.50        -4.4926   1.0000                                         
     4  1  1.50        -4.0817   0.0000                                         
     4  3  2.50        -1.3606   0.0000                                         
   Description                                                                  
     l       E           TYP  RCUT    TYP  RCUT                                 
     2     -4.6457903     23  2.300                                             
     2     -6.0063729     23  2.300                                             
     0     -4.4925590     23  2.300                                             
     0      5.0102601     23  2.300                                             
     1     -2.7211652     23  2.300                                             
     1     16.5183231     23  2.300                                             
  local pseudopotential read in
  partial core-charges read in
  partial kinetic energy density read in
  atomic valenz-charges read in
  non local Contribution for L=           2  read in
    real space projection operators read in
  non local Contribution for L=           2  read in
    real space projection operators read in
  non local Contribution for L=           0  read in
    real space projection operators read in
  non local Contribution for L=           0  read in
    real space projection operators read in
  non local Contribution for L=           1  read in
    real space projection operators read in
  non local Contribution for L=           1  read in
    real space projection operators read in
    PAW grid and wavefunctions read in
 
   number of l-projection  operators is LMAX  =           6
   number of lm-projection operators is LMMAX =          18
 
 POTCAR:    PAW_PBE O 08Apr2002                   
   VRHFIN =O: s2p4                                                              
   LEXCH  = PE                                                                  
   EATOM  =   432.3788 eV,   31.7789 Ry                                         
                                                                                
   TITEL  = PAW_PBE O 08Apr2002                                                 
   LULTRA =        F    use ultrasoft PP ?                                      
   IUNSCR =        1    unscreen: 0-lin 1-nonlin 2-no                           
   RPACOR =    1.200    partial core radius                                     
   POMASS =   16.000; ZVAL   =    6.000    mass and valenz                      
   RCORE  =    1.520    outmost cutoff radius                                   
   RWIGS  =    1.550; RWIGS  =    0.820    wigner-seitz radius (au A)           
   ENMAX  =  400.000; ENMIN  =  300.000 eV                                      
   ICORE  =        2    local potential                                         
   LCOR   =        T    correct aug charges                                     
   LPAW   =        T    paw PP                                                  
   EAUG   =  605.392                                                            
   DEXC   =    0.000                                                            
   RMAX   =    1.553    core radius for proj-oper                               
   RAUG   =    1.300    factor for augmentation sphere                          
   RDEP   =    1.550    radius for radial grids                                 
   RDEPT  =    1.329    core radius for aug-charge                              
                                                                                
   Atomic configuration                                                         
    4 entries                                                                   
     n  l   j            E        occ.                                          
     1  0  0.50      -514.6923   2.0000                                         
     2  0  0.50       -23.9615   2.0000                                         
     2  1  0.50        -9.0305   4.0000                                         
     3  2  1.50        -9.5241   0.0000                                         
   Description                                                                  
     l       E           TYP  RCUT    TYP  RCUT                                 
     0    -23.9615318     23  1.200                                             
     0     -9.5240782     23  1.200                                             
     1     -9.0304911     23  1.520                                             
     1      8.1634956     23  1.520                                             
     2     -9.5240782      7  1.500                                             
  local pseudopotential read in
  partial core-charges read in
  partial kinetic energy density read in
  kinetic energy density of atom read in
  atomic valenz-charges read in
  non local Contribution for L=           0  read in
    real space projection operators read in
  non local Contribution for L=           0  read in
    real space projection operators read in
  non local Contribution for L=           1  read in
    real space projection operators read in
  non local Contribution for L=           1  read in
    real space projection operators read in
    PAW grid and wavefunctions read in
 
   number of l-projection  operators is LMAX  =           4
   number of lm-projection operators is LMMAX =           8
 
 Optimization of the real space projectors (new method)

 maximal supplied QI-value         = 13.42
 optimisation between [QCUT,QGAM] = [ 11.67, 23.35] = [ 38.16,152.62] Ry 
 Optimized for a Real-space Cutoff    1.63 Angstroem

   l    n(q)    QCUT    max X(q) W(low)/X(q) W(high)/X(q)  e(spline) 
   0     11    11.673    13.882    0.27E-04    0.79E-05    0.11E-06
   0     11    11.673    12.184    0.39E-04    0.13E-04    0.19E-06
   1     11    11.673     4.523    0.73E-05    0.76E-05    0.12E-06
   1     11    11.673     4.424    0.87E-05    0.13E-04    0.19E-06
   2     10    11.673    52.481    0.65E-04    0.36E-04    0.18E-06
   2     10    11.673    38.501    0.61E-04    0.33E-04    0.17E-06
   3     10    11.673    65.631    0.17E-03    0.14E-03    0.37E-06
   3     10    11.673    56.854    0.17E-03    0.14E-03    0.37E-06
 Optimization of the real space projectors (new method)

 maximal supplied QI-value         = 16.25
 optimisation between [QCUT,QGAM] = [ 11.54, 23.24] = [ 37.28,151.24] Ry 
 Optimized for a Real-space Cutoff    1.53 Angstroem

   l    n(q)    QCUT    max X(q) W(low)/X(q) W(high)/X(q)  e(spline) 
   2     10    11.539   110.144    0.12E-03    0.13E-03    0.25E-06
   2     10    11.539   103.200    0.12E-03    0.13E-03    0.25E-06
   0     11    11.539    68.437    0.46E-04    0.21E-04    0.32E-06
   0     11    11.539    33.971    0.37E-04    0.19E-04    0.29E-06
   1     10    11.539    17.065    0.51E-04    0.22E-04    0.13E-06
   1     10    11.539    12.540    0.41E-04    0.18E-04    0.11E-06
 Optimization of the real space projectors (new method)

 maximal supplied QI-value         = 16.25
 optimisation between [QCUT,QGAM] = [ 11.54, 23.24] = [ 37.28,151.24] Ry 
 Optimized for a Real-space Cutoff    1.45 Angstroem

   l    n(q)    QCUT    max X(q) W(low)/X(q) W(high)/X(q)  e(spline) 
   2      9    11.539    60.317    0.19E-03    0.47E-04    0.16E-06
   2      9    11.539    55.921    0.19E-03    0.48E-04    0.16E-06
   0     10    11.539    51.690    0.80E-04    0.50E-04    0.24E-06
   0     10    11.539    30.015    0.73E-04    0.45E-04    0.22E-06
   1     10    11.539    18.849    0.87E-04    0.16E-03    0.71E-07
   1     10    11.539    14.624    0.73E-04    0.13E-03    0.64E-07
 Optimization of the real space projectors (new method)

 maximal supplied QI-value         = 24.76
 optimisation between [QCUT,QGAM] = [ 11.64, 23.27] = [ 37.91,151.63] Ry 
 Optimized for a Real-space Cutoff    1.14 Angstroem

   l    n(q)    QCUT    max X(q) W(low)/X(q) W(high)/X(q)  e(spline) 
   0      8    11.635    20.381    0.10E-03    0.33E-03    0.24E-06
   0      8    11.635    15.268    0.11E-03    0.35E-03    0.26E-06
   1      7    11.635     5.964    0.24E-03    0.31E-03    0.30E-06
   1      7    11.635     5.382    0.22E-03    0.25E-03    0.26E-06
  PAW_PBE La 06Sep2000                  :
 energy of atom  1       EATOM= -865.9763
 kinetic energy error for atom=    0.0009 (will be added to EATOM!!)
  PAW_PBE Mn 06Sep2000                  :
 energy of atom  2       EATOM= -416.7541
 kinetic energy error for atom=    0.0024 (will be added to EATOM!!)
  PAW_PBE Ni 02Aug2007                  :
 energy of atom  3       EATOM=-1077.6739
 kinetic energy error for atom=    0.0030 (will be added to EATOM!!)
  PAW_PBE O 08Apr2002                   :
 energy of atom  4       EATOM= -432.3788
 kinetic energy error for atom=    0.0208 (will be added to EATOM!!)
 
 
 POSCAR: SCEL6_6_1_1_0_4_1/7                     
  positions in direct lattice
  velocities in cartesian coordinates
 exchange correlation table for  LEXCH =        8
   RHO(1)=    0.500       N(1)  =     2000
   RHO(2)=  100.500       N(2)  =     4000
 


--------------------------------------------------------------------------------------------------------


 ion  position               nearest neighbor table
   1  0.500  0.333  0.833-  17 2.73  17 2.73  28 2.73  21 2.73  29 2.73  22 2.73  20 2.73  23 2.73
                            30 2.73  27 2.73  18 2.73  16 2.73   9 3.34   9 3.34  11 3.34  11 3.34
   2  0.000  0.665  0.670-  22 2.70  29 2.70  17 2.70  16 2.73  16 2.73  21 2.73  28 2.73  27 2.73
                            20 2.73  19 2.76  26 2.76  15 2.76  11 3.30  10 3.33  10 3.33   9 3.33
   3  0.500  0.003  0.504-  21 2.69  28 2.69  27 2.70  20 2.70  16 2.72  15 2.73  15 2.73  14 2.73
                            25 2.75  24 2.75  26 2.75  19 2.75  10 3.31   9 3.31   9 3.31   8 3.32
   4  0.000  0.333  0.333-  20 2.72  23 2.72  27 2.72  30 2.72  24 2.72  25 2.72  19 2.72  26 2.72
                            14 2.73  14 2.73  15 2.73  13 2.73  12 3.34  12 3.34   8 3.34   8 3.34
   5  0.500  0.664  0.163-  22 2.69  29 2.69  23 2.70  30 2.70  18 2.72  13 2.73  13 2.73  14 2.73
                            26 2.75  19 2.75  24 2.75  25 2.75  10 3.31  11 3.31  11 3.31  12 3.32
   6  0.000  0.002  0.997-  21 2.70  28 2.70  17 2.70  18 2.73  18 2.73  29 2.73  22 2.73  30 2.73
                            23 2.73  24 2.76  25 2.76  13 2.76   9 3.30  10 3.33  10 3.33  11 3.33
   7  0.000  0.833  0.333-  19 1.90  26 1.90  25 1.90  24 1.90  13 1.90  15 1.90   4 3.34   4 3.34
                             5 3.36   5 3.36   3 3.36   3 3.36   6 3.37   2 3.37
   8  0.500  0.500  0.500-  14 1.93  16 1.93  20 1.94  27 1.94  26 1.96  19 1.96   3 3.32   4 3.34
                             4 3.34   1 3.34   2 3.35   2 3.35   3 3.36   5 3.36
   9  0.000  0.167  0.667-  20 1.92  27 1.92  17 1.92  21 1.93  28 1.93  15 1.95   6 3.30   3 3.31
                             3 3.31   2 3.33   1 3.34   1 3.34   4 3.34   2 3.35
  10  0.500  0.833  0.833-  16 1.92  18 1.92  21 1.93  28 1.93  22 1.93  29 1.93   3 3.31   5 3.31
                             2 3.33   2 3.33   6 3.33   6 3.33   1 3.34   1 3.34
  11  0.000  0.500  1.000-  23 1.92  30 1.92  17 1.92  29 1.93  22 1.93  13 1.95   2 3.30   5 3.31
                             5 3.31   6 3.33   1 3.34   1 3.34   4 3.34   6 3.35
  12  0.500  0.166  0.167-  14 1.93  18 1.93  23 1.94  30 1.94  25 1.96  24 1.96   5 3.32   4 3.34
                             4 3.34   1 3.34   6 3.35   6 3.35   5 3.36   3 3.36
  13  0.000  0.668  0.169-   7 1.90  11 1.95   4 2.73   5 2.73   5 2.73   6 2.76
  14  0.500  0.333  0.333-  12 1.93   8 1.93   4 2.73   4 2.73   5 2.73   3 2.73
  15  0.000  0.998  0.498-   7 1.90   9 1.95   4 2.73   3 2.73   3 2.73   2 2.76
  16  0.500  0.667  0.667-  10 1.92   8 1.93   3 2.72   2 2.73   2 2.73   1 2.73
  17  0.000  0.333  0.833-   9 1.92  11 1.92   6 2.70   2 2.70   1 2.73   1 2.73
  18  0.500  0.999  1.000-  10 1.92  12 1.93   5 2.72   6 2.73   6 2.73   1 2.73
  19  0.753  0.669  0.415-   7 1.90   8 1.96   4 2.72   5 2.75   3 2.75   2 2.76
  20  0.249  0.332  0.584-   9 1.92   8 1.94   3 2.70   4 2.72   1 2.73   2 2.73
  21  0.750  1.000  0.750-   9 1.93  10 1.93   3 2.69   6 2.70   2 2.73   1 2.73
  22  0.250  0.667  0.917-  11 1.93  10 1.93   5 2.69   2 2.70   6 2.73   1 2.73
  23  0.751  0.335  0.083-  11 1.92  12 1.94   5 2.70   4 2.72   1 2.73   6 2.73
  24  0.247  0.998  0.251-   7 1.90  12 1.96   4 2.72   3 2.75   5 2.75   6 2.76
  25  0.753  0.998  0.251-   7 1.90  12 1.96   4 2.72   3 2.75   5 2.75   6 2.76
  26  0.247  0.669  0.415-   7 1.90   8 1.96   4 2.72   5 2.75   3 2.75   2 2.76
  27  0.751  0.332  0.584-   9 1.92   8 1.94   3 2.70   4 2.72   1 2.73   2 2.73
  28  0.250  1.000  0.750-   9 1.93  10 1.93   3 2.69   6 2.70   2 2.73   1 2.73
  29  0.750  0.667  0.917-  11 1.93  10 1.93   5 2.69   2 2.70   6 2.73   1 2.73
  30  0.249  0.335  0.083-  11 1.92  12 1.94   5 2.70   4 2.72   1 2.73   6 2.73
 
  LATTYP: Found a simple monoclinic cell.
 ALAT       =    11.5509218641
 B/A-ratio  =     0.4718452007
 C/A-ratio  =     1.4146219310
 COS(beta)  =    -0.9425853273
  
  Lattice vectors:
  
 A1 = (   0.0005924019,  -0.0005924019, -11.5509218338)
 A2 = (  -3.8539066450,  -3.8539066450,   0.0000000000)
 A3 = (  -3.8595122784,   3.8595122784,  15.4016250425)


Analysis of symmetry for initial positions (statically):
=====================================================================
 Subroutine PRICEL returns:
 Original cell was already a primitive cell.
 

 Routine SETGRP: Setting up the symmetry group for a 
 simple monoclinic supercell.


 Subroutine GETGRP returns: Found  4 space group operations
 (whereof  2 operations were pure point group operations)
 out of a pool of  4 trial point group operations.


The static configuration has the point symmetry C_1h.
 The point group associated with its full space group is C_2h.


Analysis of symmetry for dynamics (positions and initial velocities):
=====================================================================
 Subroutine PRICEL returns:
 Original cell was already a primitive cell.
 

 Routine SETGRP: Setting up the symmetry group for a 
 simple monoclinic supercell.


 Subroutine GETGRP returns: Found  4 space group operations
 (whereof  2 operations were pure point group operations)
 out of a pool of  4 trial point group operations.


The dynamic configuration has the point symmetry C_1h.
 The point group associated with its full space group is C_2h.


Analysis of structural, dynamic, and magnetic symmetry:
=====================================================================
 Subroutine PRICEL returns:
 Original cell was already a primitive cell.
 

 Routine SETGRP: Setting up the symmetry group for a 
 simple monoclinic supercell.


 Subroutine GETGRP returns: Found  4 space group operations
 (whereof  2 operations were pure point group operations)
 out of a pool of  4 trial point group operations.


The magnetic configuration has the point symmetry C_1h.
 The point group associated with its full space group is C_2h.


 Subroutine INISYM returns: Found  4 space group operations
 (whereof  2 operations are pure point group operations),
 and found     1 'primitive' translations

 
 
 KPOINTS: Automatic mesh                          

Automatic generation of k-mesh.
 generate k-points for:    4    3    2
Space group operators:
 irot       det(A)        alpha          n_x          n_y          n_z        tau_x        tau_y        tau_z
    1     1.000000     0.000001     1.000000     0.000000     0.000000     0.000000     0.000000     0.000000
    2    -1.000000   179.999999     0.707107     0.707107     0.000000     0.000000     0.000000     0.000000
    3    -1.000000     0.000001     1.000000     0.000000     0.000000     0.000000    -0.333333    -0.333333
    4     1.000000   179.999999     0.707107     0.707107     0.000000     0.000000    -0.333333    -0.333333
 
 Subroutine IBZKPT returns following result:
 ===========================================
 
 Found     12 irreducible k-points:
 
 Following reciprocal coordinates:
            Coordinates               Weight
  0.000000  0.000000  0.000000      1.000000
  0.250000  0.000000  0.000000      2.000000
  0.500000  0.000000  0.000000      1.000000
  0.000000  0.333333 -0.000000      2.000000
  0.250000  0.333333 -0.000000      4.000000
  0.500000  0.333333  0.000000      2.000000
  0.000000 -0.000000  0.500000      1.000000
  0.250000  0.000000  0.500000      2.000000
  0.500000 -0.000000  0.500000      1.000000
  0.000000  0.333333  0.500000      2.000000
  0.250000  0.333333  0.500000      4.000000
  0.500000  0.333333  0.500000      2.000000
 
 Following cartesian coordinates:
            Coordinates               Weight
  0.000000  0.000000  0.000000      1.000000
  0.032435  0.032435  0.000000      2.000000
  0.064869  0.064869  0.000000      1.000000
 -0.028793  0.028793  0.028855      2.000000
  0.003641  0.061228  0.028855      4.000000
  0.036076  0.093663  0.028855      2.000000
  0.021598 -0.021598  0.043289      1.000000
  0.054033  0.010836  0.043289      2.000000
  0.086468  0.043271  0.043289      1.000000
 -0.007195  0.007195  0.072144      2.000000
  0.025240  0.039630  0.072144      4.000000
  0.057674  0.072064  0.072144      2.000000
 
 TETIRR: Found     72 inequivalent tetrahedra from      144


--------------------------------------------------------------------------------------------------------




 Dimension of arrays:
   k-points           NKPTS =     12   k-points in BZ     NKDIM =     12   number of bands    NBANDS=    148
   number of dos      NEDOS =    301   number of ions     NIONS =     30
   non local maximal  LDIM  =      8   non local SUM 2l+1 LMDIM =     32
   total plane-waves  NPLWV = 147000
   max r-space proj   IRMAX =   7772   max aug-charges    IRDMAX=  22555
   dimension x,y,z NGX =    42 NGY =   50 NGZ =   70
   dimension x,y,z NGXF=    84 NGYF=  100 NGZF=  140
   support grid    NGXF=    84 NGYF=  100 NGZF=  140
   ions per type =               6   1   5  18
   NGX,Y,Z   is equivalent  to a cutoff of  12.81, 12.45, 12.33 a.u.
   NGXF,Y,Z  is equivalent  to a cutoff of  25.62, 24.89, 24.66 a.u.

 SYSTEM =  final                                   
 POSCAR =  SCEL6_6_1_1_0_4_1/7                     

 Startparameter for this run:
   NWRITE =      2    write-flag & timer
   PREC   = accura    normal or accurate (medium, high low for compatibility)
   ISTART =      0    job   : 0-new  1-cont  2-samecut
   ICHARG =      1    charge: 1-file 2-atom 10-const
   ISPIN  =      2    spin polarized calculation?
   LNONCOLLINEAR =      F non collinear calculations
   LSORBIT =      F    spin-orbit coupling
   INIWAV =      1    electr: 0-lowe 1-rand  2-diag
   LASPH  =      F    aspherical Exc in radial PAW
   METAGGA=      F    non-selfconsistent MetaGGA calc.

 Electronic Relaxation 1
   ENCUT  =  520.0 eV  38.22 Ry    6.18 a.u.  10.13 12.42 17.55*2*pi/ulx,y,z
   ENINI  =  520.0     initial cutoff
   ENAUG  =  605.4 eV  augmentation charge cutoff
   NELM   =    100;   NELMIN=  2; NELMDL= -5     # of ELM steps 
   EDIFF  = 0.1E-02   stopping-criterion for ELM
   LREAL  =      T    real-space projection
   NLSPLINE    = F    spline interpolate recip. space projectors
   LCOMPAT=      F    compatible to vasp.4.4
   GGA_COMPAT  = T    GGA compatible to vasp.4.4-vasp.4.6
   LMAXPAW     = -100 max onsite density
   LMAXMIX     =    6 max onsite mixed and CHGCAR
   VOSKOWN=      0    Vosko Wilk Nusair interpolation
   ROPT   =   -0.00025  -0.00025  -0.00025  -0.00025
 Ionic relaxation
   EDIFFG = 0.1E-01   stopping-criterion for IOM
   NSW    =      0    number of steps for IOM
   NBLOCK =      1;   KBLOCK =      1    inner block; outer block 
   IBRION =     -1    ionic relax: 0-MD 1-quasi-New 2-CG
   NFREE  =      0    steps in history (QN), initial steepest desc. (CG)
   ISIF   =      2    stress and relaxation
   IWAVPR =     10    prediction:  0-non 1-charg 2-wave 3-comb
   ISYM   =      2    0-nonsym 1-usesym 2-fastsym
   LCORR  =      T    Harris-Foulkes like correction to forces

   POTIM  = 0.5000    time-step for ionic-motion
   TEIN   =    0.0    initial temperature
   TEBEG  =    0.0;   TEEND  =   0.0 temperature during run
   SMASS  =  -3.00    Nose mass-parameter (am)
   estimated Nose-frequenzy (Omega)   =  0.10E-29 period in steps =****** mass=  -0.679E-27a.u.
   SCALEE = 1.0000    scale energy and forces
   NPACO  =    256;   APACO  = 16.0  distance and # of slots for P.C.
   PSTRESS=    0.0 pullay stress

  Mass of Ions in am
   POMASS = 138.90 54.94 58.69 16.00
  Ionic Valenz
   ZVAL   =  11.00  7.00 10.00  6.00
  Atomic Wigner-Seitz radii
   RWIGS  =  -1.00 -1.00 -1.00 -1.00
  virtual crystal weights 
   VCA    =   1.00  1.00  1.00  1.00
   NELECT =     231.0000    total number of electrons
   NUPDOWN=      -1.0000    fix difference up-down

 DOS related values:
   EMIN   =  10.00;   EMAX   =-10.00  energy-range for DOS
   EFERMI =   0.00
   ISMEAR =    -5;   SIGMA  =   0.05  broadening in eV -4-tet -1-fermi 0-gaus

 Electronic relaxation 2 (details)
   IALGO  =     68    algorithm
   LDIAG  =      T    sub-space diagonalisation (order eigenvalues)
   LSUBROT=      F    optimize rotation matrix (better conditioning)
   TURBO    =      0    0=normal 1=particle mesh
   IRESTART =      0    0=no restart 2=restart with 2 vectors
   NREBOOT  =      0    no. of reboots
   NMIN     =      0    reboot dimension
   EREF     =   0.00    reference energy to select bands
   IMIX   =      4    mixing-type and parameters
     AMIX     =   0.40;   BMIX     =  1.00
     AMIX_MAG =   1.60;   BMIX_MAG =  1.00
     AMIN     =   0.10
     WC   =   100.;   INIMIX=   1;  MIXPRE=   1;  MAXMIX= -45

 Intra band minimization:
   WEIMIN = 0.0000     energy-eigenvalue tresh-hold
   EBREAK =  0.17E-05  absolut break condition
   DEPER  =   0.30     relativ break condition  

   TIME   =   0.40     timestep for ELM

  volume/ion in A,a.u.               =      11.45        77.28
  Fermi-wavevector in a.u.,A,eV,Ry     =   1.434218  2.710278 27.986912  2.056980
  Thomas-Fermi vector in A             =   2.553650
 
 Write flags
   LWAVE        =      F    write WAVECAR
   LDOWNSAMPLE  =      F    k-point downsampling of WAVECAR
   LCHARG       =      T    write CHGCAR
   LVTOT        =      F    write LOCPOT, total local potential
   LVHAR        =      F    write LOCPOT, Hartree potential only
   LELF         =      F    write electronic localiz. function (ELF)
   LORBIT       =     11    0 simple, 1 ext, 2 COOP (PROOUT), +10 PAW based schemes


 Dipole corrections
   LMONO  =      F    monopole corrections only (constant potential shift)
   LDIPOL =      F    correct potential (dipole corrections)
   IDIPOL =      0    1-x, 2-y, 3-z, 4-all directions 
   EPSILON=  1.0000000 bulk dielectric constant

 LDA+U is selected, type is set to LDAUTYPE =  2
   angular momentum for each species LDAUL =     0    2    2    0
   U (eV)           for each species LDAUU =   0.0  3.9  6.2  0.0
   J (eV)           for each species LDAUJ =   0.0  0.0  0.0  0.0
 Exchange correlation treatment:
   GGA     =    --    GGA type
   LEXCH   =     8    internal setting for exchange type
   VOSKOWN=      0    Vosko Wilk Nusair interpolation
   LHFCALC =     F    Hartree Fock is set to
   LHFONE  =     F    Hartree Fock one center treatment
   AEXX    =    0.0000 exact exchange contribution

 Linear response parameters
   LEPSILON=     F    determine dielectric tensor
   LRPA    =     F    only Hartree local field effects (RPA)
   LNABLA  =     F    use nabla operator in PAW spheres
   LVEL    =     F    velocity operator in full k-point grid
   LINTERFAST=   F  fast interpolation
   KINTER  =     0    interpolate to denser k-point grid
   CSHIFT  =0.1000    complex shift for real part using Kramers Kronig
   OMEGAMAX=  -1.0    maximum frequency
   DEG_THRESHOLD= 0.2000000E-02 threshold for treating states as degnerate
   RTIME   =   -0.100 relaxation time in fs
  (WPLASMAI=    0.000 imaginary part of plasma frequency in eV, 0.658/RTIME)
   DFIELD  = 0.0000000 0.0000000 0.0000000 field for delta impulse in time
 
 Orbital magnetization related:
   ORBITALMAG=     F  switch on orbital magnetization
   LCHIMAG   =     F  perturbation theory with respect to B field
   DQ        =  0.001000  dq finite difference perturbation B field
   LLRAUG    =     F  two centre corrections for induced B field



--------------------------------------------------------------------------------------------------------


 Static calculation
 charge density and potential will be updated during run
 spin polarized calculation
 RMM-DIIS sequential band-by-band and
  variant of blocked Davidson during initial phase
 perform sub-space diagonalisation
    before iterative eigenvector-optimisation
 modified Broyden-mixing scheme, WC =      100.0
 initial mixing is a Kerker type mixing with AMIX =  0.4000 and BMIX =      1.0000
 Hartree-type preconditioning will be used
 using additional bands           32
 real space projection scheme for non local part
 use partial core corrections
 calculate Harris-corrections to forces 
   (improved forces if not selfconsistent)
 use gradient corrections 
 use of overlap-Matrix (Vanderbilt PP)
 Fermi weights with tetrahedron method with Bloechl corrections


--------------------------------------------------------------------------------------------------------


  energy-cutoff  :      520.00
  volume of cell :      343.55
      direct lattice vectors                 reciprocal lattice vectors
     3.853906645  3.853906645  0.000000000     0.129738483  0.129738483  0.000000000
    -3.858919876  3.858919876  3.850703209    -0.086379936  0.086379936  0.086564317
     3.858327475 -3.858327475  7.700218625     0.043196630 -0.043196630  0.086577608

  length of vectors
     5.450247046  6.679104762  9.437518142     0.183477922  0.149720966  0.105960275


 
 k-points in units of 2pi/SCALE and weight: Automatic mesh                          
   0.00000000  0.00000000  0.00000000       0.042
   0.03243462  0.03243462  0.00000000       0.083
   0.06486924  0.06486924  0.00000000       0.042
  -0.02879331  0.02879331  0.02885477       0.083
   0.00364131  0.06122793  0.02885477       0.167
   0.03607593  0.09366255  0.02885477       0.083
   0.02159832 -0.02159832  0.04328880       0.042
   0.05403294  0.01083631  0.04328880       0.083
   0.08646756  0.04327093  0.04328880       0.042
  -0.00719500  0.00719500  0.07214358       0.083
   0.02523962  0.03962962  0.07214358       0.167
   0.05767424  0.07206424  0.07214358       0.083
 
 k-points in reciprocal lattice and weights: Automatic mesh                          
   0.00000000  0.00000000  0.00000000       0.042
   0.25000000  0.00000000  0.00000000       0.083
   0.50000000  0.00000000  0.00000000       0.042
   0.00000000  0.33333333 -0.00000000       0.083
   0.25000000  0.33333333 -0.00000000       0.167
   0.50000000  0.33333333  0.00000000       0.083
   0.00000000 -0.00000000  0.50000000       0.042
   0.25000000  0.00000000  0.50000000       0.083
   0.50000000 -0.00000000  0.50000000       0.042
   0.00000000  0.33333333  0.50000000       0.083
   0.25000000  0.33333333  0.50000000       0.167
   0.50000000  0.33333333  0.50000000       0.083
 
 position of ions in fractional coordinates (direct lattice) 
   0.50000000  0.33333330  0.83333330
   0.00000000  0.66479078  0.67008309
   0.50000000  0.00309854  0.50363784
   0.00000000  0.33333330  0.33333330
   0.50000000  0.66356816  0.16302886
   0.00000000  0.00187592  0.99658361
   0.00000000  0.83333330  0.33333330
   0.50000000  0.50020682  0.50000512
   0.00000000  0.16665635  0.66673104
   0.50000000  0.83333330  0.83333330
   0.00000000  0.50001035  0.99993566
   0.50000000  0.16645988  0.16666158
   0.00000000  0.66844134  0.16895239
   0.50000000  0.33333330  0.33333330
   0.00000000  0.99822536  0.49771431
   0.50000000  0.66739157  0.66682529
   0.00000000  0.33333330  0.83333330
   0.50000000  0.99927513  0.99984141
   0.75346272  0.66898814  0.41525672
   0.24862939  0.33202732  0.58363004
   0.75004934  0.99994868  0.74991549
   0.24995066  0.66671802  0.91675121
   0.75137061  0.33463928  0.08303656
   0.24653728  0.99767856  0.25140998
   0.75346272  0.99767856  0.25140998
   0.24653728  0.66898814  0.41525672
   0.75137061  0.33202732  0.58363004
   0.24995066  0.99994868  0.74991549
   0.75004934  0.66671802  0.91675121
   0.24862939  0.33463928  0.08303656
 
 position of ions in cartesian coordinates  (Angst):
   3.85591959 -0.00201295  7.70041621
   0.02002564 -0.02002564  7.71969823
   3.85819603 -0.00428939  3.89005306
  -0.00019747  0.00019747  3.85030689
  -0.00468432  3.85859097  3.81056188
   3.83790690 -3.83790690  7.68113533
  -1.92965741  1.92965741  5.77565850
   1.92587877  1.92802787  5.77629671
   1.92935317 -1.92935317  5.77571891
   1.92645965  1.92744699  9.62576781
   1.92857937 -1.92857937  9.62511466
   1.92763294  1.92627371  1.92431823
  -1.92758792  1.92758792  3.87493954
   1.92675586  1.92715079  3.85030689
  -1.93172689  1.93172689  7.67637861
   1.92437307  1.92953358  7.70462739
   1.92896627 -1.92896627  7.70041621
   1.92854624  1.92536040 11.54690939
   1.92439975  3.88315021  5.77364232
   1.92876343 -0.01237454  5.77261757
   1.92531787  3.85592244  9.62501884
   1.92760144 -0.00102846  9.62651794
   1.92474828  3.86667612  1.92799622
  -1.92980792  3.83007125  5.77767583
   0.02383540  5.78371457  5.77767583
  -0.02924356  1.92950689  5.77364232
   3.86628118  1.92514322  5.77261757
  -0.00201579  1.92858878  9.62501884
   3.85493510  1.92630520  9.62651794
  -0.01276947  1.92915836  1.92799622
 


--------------------------------------------------------------------------------------------------------


 k-point  1 :   0.0000 0.0000 0.0000  plane waves:    9215
 k-point  2 :   0.2500 0.0000 0.0000  plane waves:    9254
 k-point  3 :   0.5000 0.0000 0.0000  plane waves:    9320
 k-point  4 :   0.0000 0.3333-0.0000  plane waves:    9251
 k-point  5 :   0.2500 0.3333-0.0000  plane waves:    9254
 k-point  6 :   0.5000 0.3333 0.0000  plane waves:    9228
 k-point  7 :   0.0000-0.0000 0.5000  plane waves:    9224
 k-point  8 :   0.2500 0.0000 0.5000  plane waves:    9240
 k-point  9 :   0.5000-0.0000 0.5000  plane waves:    9168
 k-point 10 :   0.0000 0.3333 0.5000  plane waves:    9260
 k-point 11 :   0.2500 0.3333 0.5000  plane waves:    9241
 k-point 12 :   0.5000 0.3333 0.5000  plane waves:    9280

 maximum and minimum number of plane-waves per node :       964      900

 maximum number of plane-waves:      9320
 maximum index in each direction: 
   IXMAX=   10   IYMAX=   12   IZMAX=   17
   IXMIN=  -10   IYMIN=  -12   IZMIN=  -18


 real space projection operators:
  total allocation   :      18736.53 KBytes
  max/ min on nodes  :       2217.83       1679.11


 parallel 3D FFT for wavefunctions:
    minimum data exchange during FFTs selected (reduces bandwidth)
 parallel 3D FFT for charge:
    minimum data exchange during FFTs selected (reduces bandwidth)


 total amount of memory used by VASP MPI-rank0    76544. kBytes
=======================================================================

   base      :      30000. kBytes
   nonlr-proj:       6693. kBytes
   fftplans  :       2820. kBytes
   grid      :       8208. kBytes
   one-center:        294. kBytes
   wavefun   :      28529. kBytes
 
     INWAV:  cpu time    0.0000: real time    0.0001
 Broyden mixing: mesh for mixing (old mesh)
   NGX = 21   NGY = 25   NGZ = 35
  (NGX  = 84   NGY  =100   NGZ  =140)
  gives a total of  18375 points

 initial charge density was supplied:
 charge density of overlapping atoms calculated
 number of electron     231.0000000 magnetization      19.0000000
 keeping initial charge density in first step


--------------------------------------------------------------------------------------------------------


 Maximum index for non-local projection operator         1083
 Maximum index for augmentation-charges         1797 (set IRDMAX)


--------------------------------------------------------------------------------------------------------


 First call to EWALD:  gamma=   0.253
 Maximum number of real-space cells 3x 3x 2
 Maximum number of reciprocal cells 2x 3x 4

    FEWALD:  cpu time    0.0017: real time    0.0017


--------------------------------------- Iteration      1(   1)  ---------------------------------------


    POTLOK:  cpu time    0.0790: real time    0.0808
    SETDIJ:  cpu time    0.0142: real time    0.0142
atom =   1  type =  1  l = 0
 
 onsite density matrix
 
spin component  1
 
  1.0989
 
spin component  2
 
  1.0989
 
 occupancies and eigenvectors
 
  o =  1.0989  v =  1.0000  0.0000      0.0000  0.0000
  o =  1.0989  v =  0.0000  1.0000      0.0000  0.0000
atom =   2  type =  1  l = 0
 
 onsite density matrix
 
spin component  1
 
  1.0989
 
spin component  2
 
  1.0989
 
 occupancies and eigenvectors
 
  o =  1.0989  v =  1.0000  0.0000      0.0000  0.0000
  o =  1.0989  v =  0.0000  1.0000      0.0000  0.0000
atom =   3  type =  1  l = 0
 
 onsite density matrix
 
spin component  1
 
  1.0989
 
spin component  2
 
  1.0989
 
 occupancies and eigenvectors
 
  o =  1.0989  v =  1.0000  0.0000      0.0000  0.0000
  o =  1.0989  v =  0.0000  1.0000      0.0000  0.0000
atom =   4  type =  1  l = 0
 
 onsite density matrix
 
spin component  1
 
  1.0989
 
spin component  2
 
  1.0989
 
 occupancies and eigenvectors
 
  o =  1.0989  v =  1.0000  0.0000      0.0000  0.0000
  o =  1.0989  v =  0.0000  1.0000      0.0000  0.0000
atom =   5  type =  1  l = 0
 
 onsite density matrix
 
spin component  1
 
  1.0989
 
spin component  2
 
  1.0989
 
 occupancies and eigenvectors
 
  o =  1.0989  v =  1.0000  0.0000      0.0000  0.0000
  o =  1.0989  v =  0.0000  1.0000      0.0000  0.0000
atom =   6  type =  1  l = 0
 
 onsite density matrix
 
spin component  1
 
  1.0989
 
spin component  2
 
  1.0989
 
 occupancies and eigenvectors
 
  o =  1.0989  v =  1.0000  0.0000      0.0000  0.0000
  o =  1.0989  v =  0.0000  1.0000      0.0000  0.0000
atom =   7  type =  2  l = 2
 
 onsite density matrix
 
spin component  1
 
  0.8272  0.0000  0.0000  0.0000  0.0000
  0.0000  0.8272  0.0000  0.0000  0.0000
  0.0000  0.0000  0.8272  0.0000  0.0000
  0.0000  0.0000  0.0000  0.8272  0.0000
  0.0000  0.0000  0.0000  0.0000  0.8272
 
spin component  2
 
  0.2256  0.0000  0.0000  0.0000  0.0000
  0.0000  0.2256  0.0000  0.0000  0.0000
  0.0000  0.0000  0.2256  0.0000  0.0000
  0.0000  0.0000  0.0000  0.2256  0.0000
  0.0000  0.0000  0.0000  0.0000  0.2256
 
 occupancies and eigenvectors
 
  o =  0.2256  v =  0.0000  0.0000  0.0000  0.0000  0.0000  0.0000  0.0000  1.0000  0.0000  0.0000      0.0000  0.0000  0.0000  0.0000  0.0000  0.0000  0.0000  0.0000  0.0000  0.0000
  o =  0.2256  v =  0.0000  0.0000  0.0000  0.0000  0.0000  1.0000  0.0000  0.0000  0.0000  0.0000      0.0000  0.0000  0.0000  0.0000  0.0000  0.0000  0.0000  0.0000  0.0000  0.0000
  o =  0.2256  v =  0.0000  0.0000  0.0000  0.0000  0.0000  0.0000  1.0000  0.0000  0.0000  0.0000      0.0000  0.0000  0.0000  0.0000  0.0000  0.0000  0.0000  0.0000  0.0000  0.0000
  o =  0.2256  v =  0.0000  0.0000  0.0000  0.0000  0.0000  0.0000  0.0000  0.0000  1.0000  0.0000      0.0000  0.0000  0.0000  0.0000  0.0000  0.0000  0.0000  0.0000  0.0000  0.0000
  o =  0.2256  v =  0.0000  0.0000  0.0000  0.0000  0.0000  0.0000  0.0000  0.0000  0.0000  1.0000      0.0000  0.0000  0.0000  0.0000  0.0000  0.0000  0.0000  0.0000  0.0000  0.0000
  o =  0.8272  v =  0.0000  1.0000  0.0000  0.0000  0.0000  0.0000  0.0000  0.0000  0.0000  0.0000      0.0000  0.0000  0.0000  0.0000  0.0000  0.0000  0.0000  0.0000  0.0000  0.0000
  o =  0.8272  v =  0.0000  0.0000  1.0000  0.0000  0.0000  0.0000  0.0000  0.0000  0.0000  0.0000      0.0000  0.0000  0.0000  0.0000  0.0000  0.0000  0.0000  0.0000  0.0000  0.0000
  o =  0.8272  v =  1.0000  0.0000  0.0000  0.0000  0.0000  0.0000  0.0000  0.0000  0.0000  0.0000      0.0000  0.0000  0.0000  0.0000  0.0000  0.0000  0.0000  0.0000  0.0000  0.0000
  o =  0.8272  v =  0.0000  0.0000  0.0000  1.0000  0.0000  0.0000  0.0000  0.0000  0.0000  0.0000      0.0000  0.0000  0.0000  0.0000  0.0000  0.0000  0.0000  0.0000  0.0000  0.0000
  o =  0.8272  v =  0.0000  0.0000  0.0000  0.0000  1.0000  0.0000  0.0000  0.0000  0.0000  0.0000      0.0000  0.0000  0.0000  0.0000  0.0000  0.0000  0.0000  0.0000  0.0000  0.0000
atom =   8  type =  3  l = 2
 
 onsite density matrix
 
spin component  1
 
  1.1008  0.0000  0.0000  0.0000  0.0000
  0.0000  1.1008  0.0000  0.0000  0.0000
  0.0000  0.0000  1.1008  0.0000  0.0000
  0.0000  0.0000  0.0000  1.1008  0.0000
  0.0000  0.0000  0.0000  0.0000  1.1008
 
spin component  2
 
  0.5927  0.0000  0.0000  0.0000  0.0000
  0.0000  0.5927  0.0000  0.0000  0.0000
  0.0000  0.0000  0.5927  0.0000  0.0000
  0.0000  0.0000  0.0000  0.5927  0.0000
  0.0000  0.0000  0.0000  0.0000  0.5927
 
 occupancies and eigenvectors
 
  o =  0.5927  v =  0.0000  0.0000  0.0000  0.0000  0.0000  1.0000  0.0000  0.0000  0.0000  0.0000      0.0000  0.0000  0.0000  0.0000  0.0000  0.0000  0.0000  0.0000  0.0000  0.0000
  o =  0.5927  v =  0.0000  0.0000  0.0000  0.0000  0.0000  0.0000  1.0000  0.0000  0.0000  0.0000      0.0000  0.0000  0.0000  0.0000  0.0000  0.0000  0.0000  0.0000  0.0000  0.0000
  o =  0.5927  v =  0.0000  0.0000  0.0000  0.0000  0.0000  0.0000  0.0000  1.0000  0.0000  0.0000      0.0000  0.0000  0.0000  0.0000  0.0000  0.0000  0.0000  0.0000  0.0000  0.0000
  o =  0.5927  v =  0.0000  0.0000  0.0000  0.0000  0.0000  0.0000  0.0000  0.0000  1.0000  0.0000      0.0000  0.0000  0.0000  0.0000  0.0000  0.0000  0.0000  0.0000  0.0000  0.0000
  o =  0.5927  v =  0.0000  0.0000  0.0000  0.0000  0.0000  0.0000  0.0000  0.0000  0.0000  1.0000      0.0000  0.0000  0.0000  0.0000  0.0000  0.0000  0.0000  0.0000  0.0000  0.0000
  o =  1.1008  v =  1.0000  0.0000  0.0000  0.0000  0.0000  0.0000  0.0000  0.0000  0.0000  0.0000      0.0000  0.0000  0.0000  0.0000  0.0000  0.0000  0.0000  0.0000  0.0000  0.0000
  o =  1.1008  v =  0.0000  1.0000  0.0000  0.0000  0.0000  0.0000  0.0000  0.0000  0.0000  0.0000      0.0000  0.0000  0.0000  0.0000  0.0000  0.0000  0.0000  0.0000  0.0000  0.0000
  o =  1.1008  v =  0.0000  0.0000  1.0000  0.0000  0.0000  0.0000  0.0000  0.0000  0.0000  0.0000      0.0000  0.0000  0.0000  0.0000  0.0000  0.0000  0.0000  0.0000  0.0000  0.0000
  o =  1.1008  v =  0.0000  0.0000  0.0000  1.0000  0.0000  0.0000  0.0000  0.0000  0.0000  0.0000      0.0000  0.0000  0.0000  0.0000  0.0000  0.0000  0.0000  0.0000  0.0000  0.0000
  o =  1.1008  v =  0.0000  0.0000  0.0000  0.0000  1.0000  0.0000  0.0000  0.0000  0.0000  0.0000      0.0000  0.0000  0.0000  0.0000  0.0000  0.0000  0.0000  0.0000  0.0000  0.0000
atom =   9  type =  3  l = 2
 
 onsite density matrix
 
spin component  1
 
  1.1008  0.0000  0.0000  0.0000  0.0000
  0.0000  1.1008  0.0000  0.0000  0.0000
  0.0000  0.0000  1.1008  0.0000  0.0000
  0.0000  0.0000  0.0000  1.1008  0.0000
  0.0000  0.0000  0.0000  0.0000  1.1008
 
spin component  2
 
  0.5927  0.0000  0.0000  0.0000  0.0000
  0.0000  0.5927  0.0000  0.0000  0.0000
  0.0000  0.0000  0.5927  0.0000  0.0000
  0.0000  0.0000  0.0000  0.5927  0.0000
  0.0000  0.0000  0.0000  0.0000  0.5927
 
 occupancies and eigenvectors
 
  o =  0.5927  v =  0.0000  0.0000  0.0000  0.0000  0.0000  1.0000  0.0000  0.0000  0.0000  0.0000      0.0000  0.0000  0.0000  0.0000  0.0000  0.0000  0.0000  0.0000  0.0000  0.0000
  o =  0.5927  v =  0.0000  0.0000  0.0000  0.0000  0.0000  0.0000  1.0000  0.0000  0.0000  0.0000      0.0000  0.0000  0.0000  0.0000  0.0000  0.0000  0.0000  0.0000  0.0000  0.0000
  o =  0.5927  v =  0.0000  0.0000  0.0000  0.0000  0.0000  0.0000  0.0000  1.0000  0.0000  0.0000      0.0000  0.0000  0.0000  0.0000  0.0000  0.0000  0.0000  0.0000  0.0000  0.0000
  o =  0.5927  v =  0.0000  0.0000  0.0000  0.0000  0.0000  0.0000  0.0000  0.0000  1.0000  0.0000      0.0000  0.0000  0.0000  0.0000  0.0000  0.0000  0.0000  0.0000  0.0000  0.0000
  o =  0.5927  v =  0.0000  0.0000  0.0000  0.0000  0.0000  0.0000  0.0000  0.0000  0.0000  1.0000      0.0000  0.0000  0.0000  0.0000  0.0000  0.0000  0.0000  0.0000  0.0000  0.0000
  o =  1.1008  v =  1.0000  0.0000  0.0000  0.0000  0.0000  0.0000  0.0000  0.0000  0.0000  0.0000      0.0000  0.0000  0.0000  0.0000  0.0000  0.0000  0.0000  0.0000  0.0000  0.0000
  o =  1.1008  v =  0.0000  1.0000  0.0000  0.0000  0.0000  0.0000  0.0000  0.0000  0.0000  0.0000      0.0000  0.0000  0.0000  0.0000  0.0000  0.0000  0.0000  0.0000  0.0000  0.0000
  o =  1.1008  v =  0.0000  0.0000  1.0000  0.0000  0.0000  0.0000  0.0000  0.0000  0.0000  0.0000      0.0000  0.0000  0.0000  0.0000  0.0000  0.0000  0.0000  0.0000  0.0000  0.0000
  o =  1.1008  v =  0.0000  0.0000  0.0000  1.0000  0.0000  0.0000  0.0000  0.0000  0.0000  0.0000      0.0000  0.0000  0.0000  0.0000  0.0000  0.0000  0.0000  0.0000  0.0000  0.0000
  o =  1.1008  v =  0.0000  0.0000  0.0000  0.0000  1.0000  0.0000  0.0000  0.0000  0.0000  0.0000      0.0000  0.0000  0.0000  0.0000  0.0000  0.0000  0.0000  0.0000  0.0000  0.0000
atom =  10  type =  3  l = 2
 
 onsite density matrix
 
spin component  1
 
  1.1008  0.0000  0.0000  0.0000  0.0000
  0.0000  1.1008  0.0000  0.0000  0.0000
  0.0000  0.0000  1.1008  0.0000  0.0000
  0.0000  0.0000  0.0000  1.1008  0.0000
  0.0000  0.0000  0.0000  0.0000  1.1008
 
spin component  2
 
  0.5927  0.0000  0.0000  0.0000  0.0000
  0.0000  0.5927  0.0000  0.0000  0.0000
  0.0000  0.0000  0.5927  0.0000  0.0000
  0.0000  0.0000  0.0000  0.5927  0.0000
  0.0000  0.0000  0.0000  0.0000  0.5927
 
 occupancies and eigenvectors
 
  o =  0.5927  v =  0.0000  0.0000  0.0000  0.0000  0.0000  1.0000  0.0000  0.0000  0.0000  0.0000      0.0000  0.0000  0.0000  0.0000  0.0000  0.0000  0.0000  0.0000  0.0000  0.0000
  o =  0.5927  v =  0.0000  0.0000  0.0000  0.0000  0.0000  0.0000  1.0000  0.0000  0.0000  0.0000      0.0000  0.0000  0.0000  0.0000  0.0000  0.0000  0.0000  0.0000  0.0000  0.0000
  o =  0.5927  v =  0.0000  0.0000  0.0000  0.0000  0.0000  0.0000  0.0000  1.0000  0.0000  0.0000      0.0000  0.0000  0.0000  0.0000  0.0000  0.0000  0.0000  0.0000  0.0000  0.0000
  o =  0.5927  v =  0.0000  0.0000  0.0000  0.0000  0.0000  0.0000  0.0000  0.0000  1.0000  0.0000      0.0000  0.0000  0.0000  0.0000  0.0000  0.0000  0.0000  0.0000  0.0000  0.0000
  o =  0.5927  v =  0.0000  0.0000  0.0000  0.0000  0.0000  0.0000  0.0000  0.0000  0.0000  1.0000      0.0000  0.0000  0.0000  0.0000  0.0000  0.0000  0.0000  0.0000  0.0000  0.0000
  o =  1.1008  v =  1.0000  0.0000  0.0000  0.0000  0.0000  0.0000  0.0000  0.0000  0.0000  0.0000      0.0000  0.0000  0.0000  0.0000  0.0000  0.0000  0.0000  0.0000  0.0000  0.0000
  o =  1.1008  v =  0.0000  1.0000  0.0000  0.0000  0.0000  0.0000  0.0000  0.0000  0.0000  0.0000      0.0000  0.0000  0.0000  0.0000  0.0000  0.0000  0.0000  0.0000  0.0000  0.0000
  o =  1.1008  v =  0.0000  0.0000  1.0000  0.0000  0.0000  0.0000  0.0000  0.0000  0.0000  0.0000      0.0000  0.0000  0.0000  0.0000  0.0000  0.0000  0.0000  0.0000  0.0000  0.0000
  o =  1.1008  v =  0.0000  0.0000  0.0000  1.0000  0.0000  0.0000  0.0000  0.0000  0.0000  0.0000      0.0000  0.0000  0.0000  0.0000  0.0000  0.0000  0.0000  0.0000  0.0000  0.0000
  o =  1.1008  v =  0.0000  0.0000  0.0000  0.0000  1.0000  0.0000  0.0000  0.0000  0.0000  0.0000      0.0000  0.0000  0.0000  0.0000  0.0000  0.0000  0.0000  0.0000  0.0000  0.0000
atom =  11  type =  3  l = 2
 
 onsite density matrix
 
spin component  1
 
  1.1008  0.0000  0.0000  0.0000  0.0000
  0.0000  1.1008  0.0000  0.0000  0.0000
  0.0000  0.0000  1.1008  0.0000  0.0000
  0.0000  0.0000  0.0000  1.1008  0.0000
  0.0000  0.0000  0.0000  0.0000  1.1008
 
spin component  2
 
  0.5927  0.0000  0.0000  0.0000  0.0000
  0.0000  0.5927  0.0000  0.0000  0.0000
  0.0000  0.0000  0.5927  0.0000  0.0000
  0.0000  0.0000  0.0000  0.5927  0.0000
  0.0000  0.0000  0.0000  0.0000  0.5927
 
 occupancies and eigenvectors
 
  o =  0.5927  v =  0.0000  0.0000  0.0000  0.0000  0.0000  1.0000  0.0000  0.0000  0.0000  0.0000      0.0000  0.0000  0.0000  0.0000  0.0000  0.0000  0.0000  0.0000  0.0000  0.0000
  o =  0.5927  v =  0.0000  0.0000  0.0000  0.0000  0.0000  0.0000  1.0000  0.0000  0.0000  0.0000      0.0000  0.0000  0.0000  0.0000  0.0000  0.0000  0.0000  0.0000  0.0000  0.0000
  o =  0.5927  v =  0.0000  0.0000  0.0000  0.0000  0.0000  0.0000  0.0000  1.0000  0.0000  0.0000      0.0000  0.0000  0.0000  0.0000  0.0000  0.0000  0.0000  0.0000  0.0000  0.0000
  o =  0.5927  v =  0.0000  0.0000  0.0000  0.0000  0.0000  0.0000  0.0000  0.0000  1.0000  0.0000      0.0000  0.0000  0.0000  0.0000  0.0000  0.0000  0.0000  0.0000  0.0000  0.0000
  o =  0.5927  v =  0.0000  0.0000  0.0000  0.0000  0.0000  0.0000  0.0000  0.0000  0.0000  1.0000      0.0000  0.0000  0.0000  0.0000  0.0000  0.0000  0.0000  0.0000  0.0000  0.0000
  o =  1.1008  v =  1.0000  0.0000  0.0000  0.0000  0.0000  0.0000  0.0000  0.0000  0.0000  0.0000      0.0000  0.0000  0.0000  0.0000  0.0000  0.0000  0.0000  0.0000  0.0000  0.0000
  o =  1.1008  v =  0.0000  1.0000  0.0000  0.0000  0.0000  0.0000  0.0000  0.0000  0.0000  0.0000      0.0000  0.0000  0.0000  0.0000  0.0000  0.0000  0.0000  0.0000  0.0000  0.0000
  o =  1.1008  v =  0.0000  0.0000  1.0000  0.0000  0.0000  0.0000  0.0000  0.0000  0.0000  0.0000      0.0000  0.0000  0.0000  0.0000  0.0000  0.0000  0.0000  0.0000  0.0000  0.0000
  o =  1.1008  v =  0.0000  0.0000  0.0000  1.0000  0.0000  0.0000  0.0000  0.0000  0.0000  0.0000      0.0000  0.0000  0.0000  0.0000  0.0000  0.0000  0.0000  0.0000  0.0000  0.0000
  o =  1.1008  v =  0.0000  0.0000  0.0000  0.0000  1.0000  0.0000  0.0000  0.0000  0.0000  0.0000      0.0000  0.0000  0.0000  0.0000  0.0000  0.0000  0.0000  0.0000  0.0000  0.0000
atom =  12  type =  3  l = 2
 
 onsite density matrix
 
spin component  1
 
  1.1008  0.0000  0.0000  0.0000  0.0000
  0.0000  1.1008  0.0000  0.0000  0.0000
  0.0000  0.0000  1.1008  0.0000  0.0000
  0.0000  0.0000  0.0000  1.1008  0.0000
  0.0000  0.0000  0.0000  0.0000  1.1008
 
spin component  2
 
  0.5927  0.0000  0.0000  0.0000  0.0000
  0.0000  0.5927  0.0000  0.0000  0.0000
  0.0000  0.0000  0.5927  0.0000  0.0000
  0.0000  0.0000  0.0000  0.5927  0.0000
  0.0000  0.0000  0.0000  0.0000  0.5927
 
 occupancies and eigenvectors
 
  o =  0.5927  v =  0.0000  0.0000  0.0000  0.0000  0.0000  1.0000  0.0000  0.0000  0.0000  0.0000      0.0000  0.0000  0.0000  0.0000  0.0000  0.0000  0.0000  0.0000  0.0000  0.0000
  o =  0.5927  v =  0.0000  0.0000  0.0000  0.0000  0.0000  0.0000  1.0000  0.0000  0.0000  0.0000      0.0000  0.0000  0.0000  0.0000  0.0000  0.0000  0.0000  0.0000  0.0000  0.0000
  o =  0.5927  v =  0.0000  0.0000  0.0000  0.0000  0.0000  0.0000  0.0000  1.0000  0.0000  0.0000      0.0000  0.0000  0.0000  0.0000  0.0000  0.0000  0.0000  0.0000  0.0000  0.0000
  o =  0.5927  v =  0.0000  0.0000  0.0000  0.0000  0.0000  0.0000  0.0000  0.0000  1.0000  0.0000      0.0000  0.0000  0.0000  0.0000  0.0000  0.0000  0.0000  0.0000  0.0000  0.0000
  o =  0.5927  v =  0.0000  0.0000  0.0000  0.0000  0.0000  0.0000  0.0000  0.0000  0.0000  1.0000      0.0000  0.0000  0.0000  0.0000  0.0000  0.0000  0.0000  0.0000  0.0000  0.0000
  o =  1.1008  v =  1.0000  0.0000  0.0000  0.0000  0.0000  0.0000  0.0000  0.0000  0.0000  0.0000      0.0000  0.0000  0.0000  0.0000  0.0000  0.0000  0.0000  0.0000  0.0000  0.0000
  o =  1.1008  v =  0.0000  1.0000  0.0000  0.0000  0.0000  0.0000  0.0000  0.0000  0.0000  0.0000      0.0000  0.0000  0.0000  0.0000  0.0000  0.0000  0.0000  0.0000  0.0000  0.0000
  o =  1.1008  v =  0.0000  0.0000  1.0000  0.0000  0.0000  0.0000  0.0000  0.0000  0.0000  0.0000      0.0000  0.0000  0.0000  0.0000  0.0000  0.0000  0.0000  0.0000  0.0000  0.0000
  o =  1.1008  v =  0.0000  0.0000  0.0000  1.0000  0.0000  0.0000  0.0000  0.0000  0.0000  0.0000      0.0000  0.0000  0.0000  0.0000  0.0000  0.0000  0.0000  0.0000  0.0000  0.0000
  o =  1.1008  v =  0.0000  0.0000  0.0000  0.0000  1.0000  0.0000  0.0000  0.0000  0.0000  0.0000      0.0000  0.0000  0.0000  0.0000  0.0000  0.0000  0.0000  0.0000  0.0000  0.0000
atom =  13  type =  4  l = 0
 
 onsite density matrix
 
spin component  1
 
  0.8190
 
spin component  2
 
  0.8190
 
 occupancies and eigenvectors
 
  o =  0.8190  v =  1.0000  0.0000      0.0000  0.0000
  o =  0.8190  v =  0.0000  1.0000      0.0000  0.0000
atom =  14  type =  4  l = 0
 
 onsite density matrix
 
spin component  1
 
  0.8190
 
spin component  2
 
  0.8190
 
 occupancies and eigenvectors
 
  o =  0.8190  v =  1.0000  0.0000      0.0000  0.0000
  o =  0.8190  v =  0.0000  1.0000      0.0000  0.0000
atom =  15  type =  4  l = 0
 
 onsite density matrix
 
spin component  1
 
  0.8190
 
spin component  2
 
  0.8190
 
 occupancies and eigenvectors
 
  o =  0.8190  v =  1.0000  0.0000      0.0000  0.0000
  o =  0.8190  v =  0.0000  1.0000      0.0000  0.0000
atom =  16  type =  4  l = 0
 
 onsite density matrix
 
spin component  1
 
  0.8190
 
spin component  2
 
  0.8190
 
 occupancies and eigenvectors
 
  o =  0.8190  v =  1.0000  0.0000      0.0000  0.0000
  o =  0.8190  v =  0.0000  1.0000      0.0000  0.0000
atom =  17  type =  4  l = 0
 
 onsite density matrix
 
spin component  1
 
  0.8190
 
spin component  2
 
  0.8190
 
 occupancies and eigenvectors
 
  o =  0.8190  v =  1.0000  0.0000      0.0000  0.0000
  o =  0.8190  v =  0.0000  1.0000      0.0000  0.0000
atom =  18  type =  4  l = 0
 
 onsite density matrix
 
spin component  1
 
  0.8190
 
spin component  2
 
  0.8190
 
 occupancies and eigenvectors
 
  o =  0.8190  v =  1.0000  0.0000      0.0000  0.0000
  o =  0.8190  v =  0.0000  1.0000      0.0000  0.0000
atom =  19  type =  4  l = 0
 
 onsite density matrix
 
spin component  1
 
  0.8190
 
spin component  2
 
  0.8190
 
 occupancies and eigenvectors
 
  o =  0.8190  v =  1.0000  0.0000      0.0000  0.0000
  o =  0.8190  v =  0.0000  1.0000      0.0000  0.0000
atom =  20  type =  4  l = 0
 
 onsite density matrix
 
spin component  1
 
  0.8190
 
spin component  2
 
  0.8190
 
 occupancies and eigenvectors
 
  o =  0.8190  v =  1.0000  0.0000      0.0000  0.0000
  o =  0.8190  v =  0.0000  1.0000      0.0000  0.0000
atom =  21  type =  4  l = 0
 
 onsite density matrix
 
spin component  1
 
  0.8190
 
spin component  2
 
  0.8190
 
 occupancies and eigenvectors
 
  o =  0.8190  v =  1.0000  0.0000      0.0000  0.0000
  o =  0.8190  v =  0.0000  1.0000      0.0000  0.0000
atom =  22  type =  4  l = 0
 
 onsite density matrix
 
spin component  1
 
  0.8190
 
spin component  2
 
  0.8190
 
 occupancies and eigenvectors
 
  o =  0.8190  v =  1.0000  0.0000      0.0000  0.0000
  o =  0.8190  v =  0.0000  1.0000      0.0000  0.0000
atom =  23  type =  4  l = 0
 
 onsite density matrix
 
spin component  1
 
  0.8190
 
spin component  2
 
  0.8190
 
 occupancies and eigenvectors
 
  o =  0.8190  v =  1.0000  0.0000      0.0000  0.0000
  o =  0.8190  v =  0.0000  1.0000      0.0000  0.0000
atom =  24  type =  4  l = 0
 
 onsite density matrix
 
spin component  1
 
  0.8190
 
spin component  2
 
  0.8190
 
 occupancies and eigenvectors
 
  o =  0.8190  v =  1.0000  0.0000      0.0000  0.0000
  o =  0.8190  v =  0.0000  1.0000      0.0000  0.0000
atom =  25  type =  4  l = 0
 
 onsite density matrix
 
spin component  1
 
  0.8190
 
spin component  2
 
  0.8190
 
 occupancies and eigenvectors
 
  o =  0.8190  v =  1.0000  0.0000      0.0000  0.0000
  o =  0.8190  v =  0.0000  1.0000      0.0000  0.0000
atom =  26  type =  4  l = 0
 
 onsite density matrix
 
spin component  1
 
  0.8190
 
spin component  2
 
  0.8190
 
 occupancies and eigenvectors
 
  o =  0.8190  v =  1.0000  0.0000      0.0000  0.0000
  o =  0.8190  v =  0.0000  1.0000      0.0000  0.0000
atom =  27  type =  4  l = 0
 
 onsite density matrix
 
spin component  1
 
  0.8190
 
spin component  2
 
  0.8190
 
 occupancies and eigenvectors
 
  o =  0.8190  v =  1.0000  0.0000      0.0000  0.0000
  o =  0.8190  v =  0.0000  1.0000      0.0000  0.0000
atom =  28  type =  4  l = 0
 
 onsite density matrix
 
spin component  1
 
  0.8190
 
spin component  2
 
  0.8190
 
 occupancies and eigenvectors
 
  o =  0.8190  v =  1.0000  0.0000      0.0000  0.0000
  o =  0.8190  v =  0.0000  1.0000      0.0000  0.0000
atom =  29  type =  4  l = 0
 
 onsite density matrix
 
spin component  1
 
  0.8190
 
spin component  2
 
  0.8190
 
 occupancies and eigenvectors
 
  o =  0.8190  v =  1.0000  0.0000      0.0000  0.0000
  o =  0.8190  v =  0.0000  1.0000      0.0000  0.0000
atom =  30  type =  4  l = 0
 
 onsite density matrix
 
spin component  1
 
  0.8190
 
spin component  2
 
  0.8190
 
 occupancies and eigenvectors
 
  o =  0.8190  v =  1.0000  0.0000      0.0000  0.0000
  o =  0.8190  v =  0.0000  1.0000      0.0000  0.0000
     EDDAV:  cpu time    4.1143: real time    4.1425
 BZINTS: Fermi energy: 33.392751;231.000000 electrons
         Band energy:3534.563710;  BLOECHL correction: -0.249080
       DOS:  cpu time    0.0319: real time    0.0377
    --------------------------------------------
      LOOP:  cpu time    4.2394: real time    4.2752

 eigenvalue-minimisations  :  7580
 total energy-change (2. order) : 0.3617523E+04  (-0.8120311E+04)
 number of electron     231.0000000 magnetization      19.0000000
 augmentation part      231.0000000 magnetization      19.0000000

 Free energy of the ion-electron system (eV)
  ---------------------------------------------------
  alpha Z        PSCENC =       994.50935401
  Ewald energy   TEWEN  =    -16411.73987918
  -Hartree energ DENC   =     -3905.23144425
  -exchange      EXHF   =         0.00000000
  -V(xc)+E(xc)   XCENC  =       840.94156897
  PAW double counting   =     15315.83226627   -15534.75522903
  entropy T*S    EENTRO =         0.00000000
  eigenvalues    EBANDS =      3534.56370960
  atomic energy  EATOM  =     18783.40221373
  Solvation  Ediel_sol  =         0.00000000
  ---------------------------------------------------
  free energy    TOTEN  =      3617.52256012 eV

  energy without entropy =     3617.52256012  energy(sigma->0) =     3617.52256012


--------------------------------------------------------------------------------------------------------




--------------------------------------- Iteration      1(   2)  ---------------------------------------


     EDDAV:  cpu time    4.1966: real time    4.2186
 BZINTS: Fermi energy: 16.821713;231.000000 electrons
         Band energy:1164.490697;  BLOECHL correction: -0.044401
       DOS:  cpu time    0.0365: real time    0.0366
    --------------------------------------------
      LOOP:  cpu time    4.2332: real time    4.2552

 eigenvalue-minimisations  :  7832
 total energy-change (2. order) :-0.2370073E+04  (-0.2147837E+04)
 number of electron     231.0000000 magnetization      19.0000000
 augmentation part      231.0000000 magnetization      19.0000000

 Free energy of the ion-electron system (eV)
  ---------------------------------------------------
  alpha Z        PSCENC =       994.50935401
  Ewald energy   TEWEN  =    -16411.73987918
  -Hartree energ DENC   =     -3905.23144425
  -exchange      EXHF   =         0.00000000
  -V(xc)+E(xc)   XCENC  =       840.94156897
  PAW double counting   =     15315.83226627   -15534.75522903
  entropy T*S    EENTRO =         0.00000000
  eigenvalues    EBANDS =      1164.49069729
  atomic energy  EATOM  =     18783.40221373
  Solvation  Ediel_sol  =         0.00000000
  ---------------------------------------------------
  free energy    TOTEN  =      1247.44954781 eV

  energy without entropy =     1247.44954781  energy(sigma->0) =     1247.44954781


--------------------------------------------------------------------------------------------------------




--------------------------------------- Iteration      1(   3)  ---------------------------------------


     EDDAV:  cpu time    4.1518: real time    4.1777
 BZINTS: Fermi energy: 12.579325;231.000000 electrons
         Band energy: 179.896792;  BLOECHL correction: -0.035558
       DOS:  cpu time    0.0358: real time    0.0359
    --------------------------------------------
      LOOP:  cpu time    4.1876: real time    4.2136

 eigenvalue-minimisations  :  7712
 total energy-change (2. order) :-0.9845939E+03  (-0.8746396E+03)
 number of electron     231.0000000 magnetization      19.0000000
 augmentation part      231.0000000 magnetization      19.0000000

 Free energy of the ion-electron system (eV)
  ---------------------------------------------------
  alpha Z        PSCENC =       994.50935401
  Ewald energy   TEWEN  =    -16411.73987918
  -Hartree energ DENC   =     -3905.23144425
  -exchange      EXHF   =         0.00000000
  -V(xc)+E(xc)   XCENC  =       840.94156897
  PAW double counting   =     15315.83226627   -15534.75522903
  entropy T*S    EENTRO =         0.00000000
  eigenvalues    EBANDS =       179.89679230
  atomic energy  EATOM  =     18783.40221373
  Solvation  Ediel_sol  =         0.00000000
  ---------------------------------------------------
  free energy    TOTEN  =       262.85564282 eV

  energy without entropy =      262.85564282  energy(sigma->0) =      262.85564282


--------------------------------------------------------------------------------------------------------




--------------------------------------- Iteration      1(   4)  ---------------------------------------


     EDDAV:  cpu time    5.6271: real time    5.6604
 BZINTS: Fermi energy: 11.918112;231.000000 electrons
         Band energy:-236.565211;  BLOECHL correction: -0.009283
       DOS:  cpu time    0.0373: real time    0.0373
    --------------------------------------------
      LOOP:  cpu time    5.6644: real time    5.6977

 eigenvalue-minimisations  : 11184
 total energy-change (2. order) :-0.4164620E+03  (-0.3944030E+03)
 number of electron     231.0000000 magnetization      19.0000000
 augmentation part      231.0000000 magnetization      19.0000000

 Free energy of the ion-electron system (eV)
  ---------------------------------------------------
  alpha Z        PSCENC =       994.50935401
  Ewald energy   TEWEN  =    -16411.73987918
  -Hartree energ DENC   =     -3905.23144425
  -exchange      EXHF   =         0.00000000
  -V(xc)+E(xc)   XCENC  =       840.94156897
  PAW double counting   =     15315.83226627   -15534.75522903
  entropy T*S    EENTRO =         0.00000000
  eigenvalues    EBANDS =      -236.56521064
  atomic energy  EATOM  =     18783.40221373
  Solvation  Ediel_sol  =         0.00000000
  ---------------------------------------------------
  free energy    TOTEN  =      -153.60636012 eV

  energy without entropy =     -153.60636012  energy(sigma->0) =     -153.60636012


--------------------------------------------------------------------------------------------------------




--------------------------------------- Iteration      1(   5)  ---------------------------------------


     EDDAV:  cpu time    6.4638: real time    6.5181
 BZINTS: Fermi energy: 11.407354;231.000000 electrons
         Band energy:-321.095770;  BLOECHL correction: -0.015104
       DOS:  cpu time    0.0348: real time    0.0350
    CHARGE:  cpu time    0.1817: real time    0.1823
    MIXING:  cpu time    0.0032: real time    0.0036
    --------------------------------------------
      LOOP:  cpu time    6.6836: real time    6.7390

 eigenvalue-minimisations  : 13216
 total energy-change (2. order) :-0.8453056E+02  (-0.8132444E+02)
 number of electron     231.0000036 magnetization      18.0338449
 augmentation part       33.5882844 magnetization      13.9409931

 Broyden mixing:
  rms(total) = 0.87760E+01    rms(broyden)= 0.87756E+01
  rms(prec ) = 0.98996E+01
  weight for this iteration     100.00

 Free energy of the ion-electron system (eV)
  ---------------------------------------------------
  alpha Z        PSCENC =       994.50935401
  Ewald energy   TEWEN  =    -16411.73987918
  -Hartree energ DENC   =     -3905.23144425
  -exchange      EXHF   =         0.00000000
  -V(xc)+E(xc)   XCENC  =       840.94156897
  PAW double counting   =     15315.83226627   -15534.75522903
  entropy T*S    EENTRO =         0.00000000
  eigenvalues    EBANDS =      -321.09576992
  atomic energy  EATOM  =     18783.40221373
  Solvation  Ediel_sol  =         0.00000000
  ---------------------------------------------------
  free energy    TOTEN  =      -238.13691940 eV

  energy without entropy =     -238.13691940  energy(sigma->0) =     -238.13691940


--------------------------------------------------------------------------------------------------------




--------------------------------------- Iteration      1(   6)  ---------------------------------------


    POTLOK:  cpu time    0.0744: real time    0.0764
    SETDIJ:  cpu time    0.0130: real time    0.0130
atom =   1  type =  1  l = 0
 
 onsite density matrix
 
spin component  1
 
  1.0568
 
spin component  2
 
  1.0560
 
 occupancies and eigenvectors
 
  o =  1.0560  v =  0.0000  1.0000      0.0000  0.0000
  o =  1.0568  v =  1.0000  0.0000      0.0000  0.0000
atom =   2  type =  1  l = 0
 
 onsite density matrix
 
spin component  1
 
  1.0571
 
spin component  2
 
  1.0574
 
 occupancies and eigenvectors
 
  o =  1.0571  v =  1.0000  0.0000      0.0000  0.0000
  o =  1.0574  v =  0.0000  1.0000      0.0000  0.0000
atom =   3  type =  1  l = 0
 
 onsite density matrix
 
spin component  1
 
  1.0564
 
spin component  2
 
  1.0564
 
 occupancies and eigenvectors
 
  o =  1.0564  v =  0.0000  1.0000      0.0000  0.0000
  o =  1.0564  v =  1.0000  0.0000      0.0000  0.0000
atom =   4  type =  1  l = 0
 
 onsite density matrix
 
spin component  1
 
  1.0562
 
spin component  2
 
  1.0565
 
 occupancies and eigenvectors
 
  o =  1.0562  v =  1.0000  0.0000      0.0000  0.0000
  o =  1.0565  v =  0.0000  1.0000      0.0000  0.0000
atom =   5  type =  1  l = 0
 
 onsite density matrix
 
spin component  1
 
  1.0564
 
spin component  2
 
  1.0564
 
 occupancies and eigenvectors
 
  o =  1.0564  v =  0.0000  1.0000      0.0000  0.0000
  o =  1.0564  v =  1.0000  0.0000      0.0000  0.0000
atom =   6  type =  1  l = 0
 
 onsite density matrix
 
spin component  1
 
  1.0571
 
spin component  2
 
  1.0574
 
 occupancies and eigenvectors
 
  o =  1.0571  v =  1.0000  0.0000      0.0000  0.0000
  o =  1.0574  v =  0.0000  1.0000      0.0000  0.0000
atom =   7  type =  2  l = 2
 
 onsite density matrix
 
spin component  1
 
  0.9711  0.0010 -0.0009 -0.0010  0.0000
  0.0010  0.9542  0.0025  0.0033 -0.0011
 -0.0009  0.0025  0.3513 -0.0025  0.0000
 -0.0010  0.0033 -0.0025  0.9542 -0.0011
  0.0000 -0.0011  0.0000 -0.0011  0.3476
 
spin component  2
 
  0.0281 -0.0010  0.0007  0.0010  0.0000
 -0.0010  0.0381 -0.0020 -0.0014  0.0008
  0.0007 -0.0020  0.4561  0.0020  0.0000
  0.0010 -0.0014  0.0020  0.0381  0.0008
  0.0000  0.0008  0.0000  0.0008  0.4580
 
 occupancies and eigenvectors
 
  o =  0.0279  v =  0.0000  0.0000  0.0000  0.0000  0.0000  0.9927  0.0851 -0.0009 -0.0851 -0.0000      0.0000  0.0000  0.0000  0.0000  0.0000  0.0000  0.0000  0.0000  0.0000  0.0000
  o =  0.0367  v =  0.0000  0.0000  0.0000  0.0000  0.0000 -0.0000  0.7071  0.0000  0.7071 -0.0027      0.0000  0.0000  0.0000  0.0000  0.0000  0.0000  0.0000  0.0000  0.0000  0.0000
  o =  0.0396  v =  0.0000  0.0000  0.0000  0.0000  0.0000  0.1203 -0.7020 -0.0068  0.7020  0.0000      0.0000  0.0000  0.0000  0.0000  0.0000  0.0000  0.0000  0.0000  0.0000  0.0000
  o =  0.3476  v =  0.0000 -0.0019 -0.0000 -0.0019 -1.0000  0.0000  0.0000  0.0000  0.0000  0.0000      0.0000  0.0000  0.0000  0.0000  0.0000  0.0000  0.0000  0.0000  0.0000  0.0000
  o =  0.3512  v = -0.0014  0.0042 -1.0000 -0.0042  0.0000  0.0000  0.0000  0.0000  0.0000  0.0000      0.0000  0.0000  0.0000  0.0000  0.0000  0.0000  0.0000  0.0000  0.0000  0.0000
  o =  0.4561  v =  0.0000  0.0000  0.0000  0.0000  0.0000 -0.0017  0.0047 -1.0000 -0.0047  0.0000      0.0000  0.0000  0.0000  0.0000  0.0000  0.0000  0.0000  0.0000  0.0000  0.0000
  o =  0.4580  v =  0.0000  0.0000  0.0000  0.0000  0.0000 -0.0000  0.0019  0.0000  0.0019  1.0000      0.0000  0.0000  0.0000  0.0000  0.0000  0.0000  0.0000  0.0000  0.0000  0.0000
  o =  0.9509  v = -0.0708  0.7053  0.0061 -0.7053 -0.0000  0.0000  0.0000  0.0000  0.0000  0.0000      0.0000  0.0000  0.0000  0.0000  0.0000  0.0000  0.0000  0.0000  0.0000  0.0000
  o =  0.9575  v =  0.0000  0.7071 -0.0000  0.7071 -0.0026  0.0000  0.0000  0.0000  0.0000  0.0000      0.0000  0.0000  0.0000  0.0000  0.0000  0.0000  0.0000  0.0000  0.0000  0.0000
  o =  0.9712  v = -0.9975 -0.0501  0.0010  0.0501  0.0000  0.0000  0.0000  0.0000  0.0000  0.0000      0.0000  0.0000  0.0000  0.0000  0.0000  0.0000  0.0000  0.0000  0.0000  0.0000
atom =   8  type =  3  l = 2
 
 onsite density matrix
 
spin component  1
 
  0.9759  0.0005 -0.0015 -0.0005  0.0000
  0.0005  1.0195  0.0002 -0.0058  0.0006
 -0.0015  0.0002  1.3268 -0.0002 -0.0000
 -0.0005 -0.0058 -0.0002  1.0195  0.0006
  0.0000  0.0006 -0.0000  0.0006  1.3188
 
spin component  2
 
  0.6780 -0.0009  0.0024  0.0009  0.0000
 -0.0009  0.6059 -0.0003  0.0096 -0.0008
  0.0024 -0.0003  0.1905  0.0003 -0.0000
  0.0009  0.0096  0.0003  0.6059 -0.0008
  0.0000 -0.0008 -0.0000 -0.0008  0.1907
 
 occupancies and eigenvectors
 
  o =  0.1904  v =  0.0000  0.0000  0.0000  0.0000  0.0000 -0.0050  0.0007  1.0000 -0.0007  0.0000      0.0000  0.0000  0.0000  0.0000  0.0000  0.0000  0.0000  0.0000  0.0000  0.0000
[...]
  0.000   0.000  -0.000  -0.000   0.000   0.000   0.000  -0.000   0.000   0.000   0.000   0.000   0.000   0.000   0.000   0.000
  0.000   0.000   0.000  -0.000  -0.000   0.000   0.000  -0.000   0.000   0.000   0.000  -0.000   0.000   0.000   0.000  -0.000
  0.000   0.000  -0.000   0.000  -0.000   0.000   0.000   0.000   0.000   0.000   0.000   0.000   0.000   0.000   0.000   0.000
  0.000   0.000   0.000  -0.000   0.000  -0.000   0.000   0.000   0.000  -0.000   0.000   0.000   0.000   0.000  -0.000   0.000
  0.000   0.000  -0.000   0.000   0.000   0.000  -0.000  -0.000   0.000   0.000   0.000  -0.000   0.000  -0.000   0.000  -0.000
  0.000   0.000  -0.000  -0.000   0.000   0.000   0.000  -0.000   0.000   0.000   0.000  -0.000   0.000   0.000   0.000   0.000
  0.000   0.000  -0.000  -0.000  -0.000   0.000   0.000  -0.000   0.000   0.000  -0.000  -0.000   0.000   0.000  -0.000   0.000
  0.000   0.000   0.000   0.000  -0.000  -0.000  -0.000   0.000   0.000   0.000   0.000   0.000   0.000   0.000   0.000   0.000
  0.000   0.000  -0.000   0.000  -0.000  -0.000  -0.000   0.000   0.000  -0.000   0.000   0.000   0.000   0.000   0.000   0.000
  0.000   0.000   0.000   0.000   0.000  -0.000   0.000  -0.000   0.000  -0.000   0.000   0.000   0.000   0.000  -0.000   0.000
  0.000   0.000  -0.000   0.000   0.000   0.000  -0.000  -0.000   0.000   0.000   0.000   0.000   0.000   0.000   0.000   0.000


------------------------ aborting loop because EDIFF is reached ----------------------------------------


 


 total charge     
 
# of ion       s       p       d       f       tot
--------------------------------------------------
    1        2.000   5.701   0.497   0.192   8.391
    2        2.000   5.701   0.497   0.193   8.392
    3        2.000   5.702   0.498   0.194   8.395
    4        2.000   5.702   0.499   0.194   8.395
    5        2.000   5.702   0.498   0.194   8.395
    6        2.001   5.701   0.497   0.193   8.392
    7        0.360   0.576   4.868   0.000   5.804
    8        0.417   0.617   8.314   0.000   9.348
    9        0.432   0.647   8.322   0.000   9.401
   10        0.432   0.655   8.313   0.000   9.400
   11        0.432   0.647   8.322   0.000   9.401
   12        0.417   0.617   8.314   0.000   9.348
   13        1.563   3.459   0.000   0.000   5.022
   14        1.562   3.432   0.000   0.000   4.994
   15        1.563   3.459   0.000   0.000   5.022
   16        1.562   3.432   0.000   0.000   4.994
   17        1.565   3.425   0.000   0.000   4.991
   18        1.562   3.432   0.000   0.000   4.994
   19        1.563   3.460   0.000   0.000   5.023
   20        1.563   3.440   0.000   0.000   5.003
   21        1.563   3.441   0.000   0.000   5.004
   22        1.563   3.441   0.000   0.000   5.004
   23        1.563   3.440   0.000   0.000   5.003
   24        1.563   3.460   0.000   0.000   5.023
   25        1.562   3.456   0.000   0.000   5.018
   26        1.562   3.456   0.000   0.000   5.018
   27        1.563   3.429   0.000   0.000   4.992
   28        1.562   3.433   0.000   0.000   4.995
   29        1.562   3.433   0.000   0.000   4.995
   30        1.563   3.429   0.000   0.000   4.992
--------------------------------------------------
tot         42.621  99.926  49.439   1.162 193.148

 


 magnetization (x)
 
# of ion       s       p       d       f       tot
--------------------------------------------------
    1        0.001  -0.001   0.005   0.002   0.007
    2        0.001  -0.000   0.006   0.003   0.009
    3        0.001   0.000   0.007   0.003   0.011
    4        0.001   0.000   0.007   0.003   0.011
    5        0.001   0.000   0.007   0.003   0.011
    6        0.001  -0.000   0.006   0.003   0.009
    7        0.025   0.033   3.210   0.000   3.269
    8        0.014   0.003   1.456   0.000   1.473
    9        0.018   0.007   1.366   0.000   1.391
   10        0.017   0.012   1.316   0.000   1.346
   11        0.018   0.007   1.366   0.000   1.391
   12        0.014   0.003   1.456   0.000   1.473
   13        0.005  -0.040   0.000   0.000  -0.035
   14        0.005  -0.098   0.000   0.000  -0.093
   15        0.005  -0.040   0.000   0.000  -0.035
   16        0.005  -0.097   0.000   0.000  -0.092
   17        0.006  -0.133   0.000   0.000  -0.127
   18        0.005  -0.097   0.000   0.000  -0.092
   19        0.004  -0.032   0.000   0.000  -0.027
   20        0.006  -0.095   0.000   0.000  -0.089
   21        0.006  -0.085   0.000   0.000  -0.079
   22        0.006  -0.085   0.000   0.000  -0.079
   23        0.006  -0.095   0.000   0.000  -0.089
   24        0.004  -0.032   0.000   0.000  -0.027
   25        0.004  -0.037   0.000   0.000  -0.033
   26        0.004  -0.037   0.000   0.000  -0.033
   27        0.006  -0.105   0.000   0.000  -0.100
   28        0.006  -0.093   0.000   0.000  -0.088
   29        0.006  -0.093   0.000   0.000  -0.088
   30        0.006  -0.105   0.000   0.000  -0.100
--------------------------------------------------
tot          0.206  -1.335  10.207   0.017   9.095

 
    CHARGE:  cpu time    0.1791: real time    0.1795
    FORLOC:  cpu time    0.0103: real time    0.0103
    FORNL :  cpu time    1.1132: real time    1.1183
    STRESS:  cpu time    3.3383: real time    3.3603
    FORCOR:  cpu time    0.0835: real time    0.0842
    FORHAR:  cpu time    0.0179: real time    0.0180
    MIXING:  cpu time    0.0053: real time    0.0053
    OFIELD:  cpu time    0.0001: real time    0.0002

  FORCE on cell =-STRESS in cart. coord.  units (eV):
  Direction    XX          YY          ZZ          XY          YZ          ZX
  --------------------------------------------------------------------------------------
  Alpha Z   994.50935   994.50935   994.50935
  Ewald   -5468.58701 -5468.58701 -5474.62481     8.28719     4.41625    -4.41625
  Hartree  1310.49437  1310.49437  1296.33995     7.17486     4.70847    -4.70847
  E(xc)   -1087.45208 -1087.45208 -1087.42959     0.00195    -0.00532     0.00532
  Local    -843.21871  -843.21871  -819.03522   -15.64376    -8.81054     8.81054
  n-local   442.60631   442.74666   443.24734    -0.07411     0.50382     0.33058
  augment   779.67169   779.67169   778.32237     0.04840    -0.02450     0.02420
  Kinetic  3870.65859  3872.60119  3868.75993     0.34518    -1.80524    -0.85267
  Fock        0.00000     0.00000     0.00000     0.00000     0.00000     0.00000
  -------------------------------------------------------------------------------------
  Total      -0.27600    -0.27600     0.08932     0.13901    -0.07664     0.07664
  in kB      -1.28716    -1.28716     0.41655     0.64827    -0.35740     0.35740
  external pressure =       -0.72 kB  Pullay stress =        0.00 kB


 VOLUME and BASIS-vectors are now :
 -----------------------------------------------------------------------------
  energy-cutoff  :      520.00
  volume of cell :      343.55
      direct lattice vectors                 reciprocal lattice vectors
     3.853906645  3.853906645  0.000000000     0.129738483  0.129738483  0.000000000
    -3.858919876  3.858919876  3.850703209    -0.086379936  0.086379936  0.086564317
     3.858327475 -3.858327475  7.700218625     0.043196630 -0.043196630  0.086577608

  length of vectors
     5.450247046  6.679104762  9.437518142     0.183477922  0.149720966  0.105960275


 FORCES acting on ions
    electron-ion (+dipol)            ewald-force                    non-local-force                 convergence-correction
 -----------------------------------------------------------------------------------------------
   -.167E-04 0.167E-04 0.167E-04   -.567E-04 0.567E-04 0.175E-03   -.983E-19 -.119E-18 0.169E-19   -.795E-05 0.795E-05 -.109E-04
   0.295E+02 -.295E+02 0.370E+02   -.293E+02 0.293E+02 -.368E+02   -.186E+00 0.186E+00 -.197E+00   0.213E-01 -.213E-01 0.233E-01
   0.667E+01 -.667E+01 0.614E+02   -.667E+01 0.667E+01 -.609E+02   -.516E-02 0.516E-02 -.402E+00   0.124E-01 -.124E-01 -.134E-01
   -.255E-04 0.255E-04 -.554E-04   -.559E-04 0.559E-04 0.174E-03   -.108E-18 0.108E-18 0.000E+00   -.417E-05 0.417E-05 -.267E-05
   -.667E+01 0.667E+01 -.614E+02   0.667E+01 -.667E+01 0.609E+02   0.516E-02 -.516E-02 0.402E+00   -.124E-01 0.124E-01 0.134E-01
   -.295E+02 0.295E+02 -.370E+02   0.293E+02 -.293E+02 0.368E+02   0.186E+00 -.186E+00 0.197E+00   -.213E-01 0.213E-01 -.233E-01
   -.260E-04 0.260E-04 -.540E-04   0.424E-04 -.424E-04 0.113E-03   0.407E-19 -.407E-19 -.271E-19   -.132E-05 0.132E-05 0.437E-05
   0.269E+02 -.269E+02 0.115E+02   -.267E+02 0.267E+02 -.116E+02   -.210E+00 0.210E+00 0.781E-01   -.374E-01 0.374E-01 0.451E-02
   0.472E+01 -.472E+01 0.341E+02   -.496E+01 0.496E+01 -.341E+02   0.184E+00 -.184E+00 -.175E+00   0.384E-01 -.384E-01 0.117E+00
   0.149E-03 -.149E-03 0.618E-05   0.625E-04 -.625E-04 0.159E-03   -.271E-19 0.000E+00 0.271E-19   -.645E-05 0.645E-05 -.329E-06
   -.472E+01 0.472E+01 -.341E+02   0.496E+01 -.496E+01 0.341E+02   -.184E+00 0.184E+00 0.175E+00   -.384E-01 0.384E-01 -.117E+00
   -.269E+02 0.269E+02 -.115E+02   0.267E+02 -.267E+02 0.116E+02   0.210E+00 -.210E+00 -.781E-01   0.374E-01 -.374E-01 -.451E-02
   -.142E+01 0.142E+01 -.621E+02   0.136E+01 -.136E+01 0.580E+02   0.682E-01 -.682E-01 0.406E+01   -.105E-01 0.105E-01 -.153E-01
   0.197E-04 -.197E-04 -.200E-03   -.427E-04 0.427E-04 0.344E-03   -.542E-19 0.542E-19 -.108E-18   0.347E-05 -.347E-05 0.182E-06
   0.142E+01 -.142E+01 0.621E+02   -.136E+01 0.136E+01 -.580E+02   -.682E-01 0.682E-01 -.406E+01   0.105E-01 -.105E-01 0.153E-01
   0.100E+02 -.100E+02 0.186E+02   -.989E+01 0.989E+01 -.191E+02   -.932E-01 0.932E-01 0.470E+00   -.186E-02 0.186E-02 0.382E-02
   0.260E-04 -.260E-04 -.164E-03   -.465E-04 0.465E-04 0.344E-03   -.163E-18 0.163E-18 0.000E+00   0.155E-05 -.155E-05 -.479E-05
   -.100E+02 0.100E+02 -.186E+02   0.989E+01 -.989E+01 0.191E+02   0.932E-01 -.932E-01 -.470E+00   0.186E-02 -.186E-02 -.382E-02
   0.942E+01 -.474E+02 0.211E+01   -.961E+01 0.430E+02 -.205E+01   0.180E+00 0.435E+01 -.644E-01   0.453E-02 -.311E-01 0.477E-02
   0.113E+02 -.144E+02 0.130E+02   -.114E+02 0.152E+02 -.128E+02   0.122E+00 -.774E+00 -.172E+00   -.130E-01 -.212E-02 0.259E-01
   0.102E+01 -.323E+01 0.107E+02   -.112E+01 0.325E+01 -.107E+02   0.858E-01 -.481E-01 -.781E-01   0.244E-01 0.158E-02 0.175E-01
   -.102E+01 0.323E+01 -.107E+02   0.112E+01 -.325E+01 0.107E+02   -.858E-01 0.481E-01 0.781E-01   -.244E-01 -.157E-02 -.175E-01
   -.113E+02 0.144E+02 -.130E+02   0.114E+02 -.152E+02 0.128E+02   -.122E+00 0.774E+00 0.172E+00   0.130E-01 0.212E-02 -.259E-01
   -.942E+01 0.474E+02 -.211E+01   0.961E+01 -.430E+02 0.205E+01   -.180E+00 -.435E+01 0.644E-01   -.453E-02 0.311E-01 -.477E-02
   -.474E+02 0.942E+01 -.211E+01   0.430E+02 -.961E+01 0.205E+01   0.435E+01 0.180E+00 0.644E-01   -.311E-01 0.453E-02 -.477E-02
   0.474E+02 -.942E+01 0.211E+01   -.430E+02 0.961E+01 -.205E+01   -.435E+01 -.180E+00 -.644E-01   0.311E-01 -.453E-02 0.477E-02
   0.144E+02 -.113E+02 0.130E+02   -.152E+02 0.114E+02 -.128E+02   0.774E+00 -.122E+00 -.172E+00   0.212E-02 0.130E-01 0.259E-01
   0.323E+01 -.102E+01 0.107E+02   -.325E+01 0.112E+01 -.107E+02   0.481E-01 -.858E-01 -.781E-01   -.158E-02 -.244E-01 0.175E-01
   -.323E+01 0.102E+01 -.107E+02   0.325E+01 -.112E+01 0.107E+02   -.481E-01 0.858E-01 0.781E-01   0.157E-02 0.244E-01 -.175E-01
   -.144E+02 0.113E+02 -.130E+02   0.152E+02 -.114E+02 0.128E+02   -.774E+00 0.122E+00 0.172E+00   -.212E-02 -.130E-01 -.259E-01
 -----------------------------------------------------------------------------------------------
   -.999E-04 0.999E-04 -.103E-01   -.355E-14 0.178E-13 -.249E-13   0.111E-15 0.694E-16 -.555E-16   -.407E-04 0.407E-04 -.637E-05
 
 
 POSITION                                       TOTAL-FORCE (eV/Angst)
 -----------------------------------------------------------------------------------
      3.85592     -0.00201      7.70042        -0.000000     -0.000000     -0.000000
      0.02003     -0.02003      7.71970         0.059698     -0.059698      0.020742
      3.85820     -0.00429      3.89005         0.001154     -0.001154      0.079840
     -0.00020      0.00020      3.85031        -0.000000     -0.000000     -0.000000
     -0.00468      3.85859      3.81056        -0.001154      0.001154     -0.079840
      3.83791     -3.83791      7.68114        -0.059698      0.059698     -0.020742
     -1.92966      1.92966      5.77566        -0.000000     -0.000000     -0.000000
      1.92588      1.92803      5.77630        -0.017996      0.017996     -0.007279
      1.92935     -1.92935      5.77572        -0.010704      0.010704     -0.014521
      1.92646      1.92745      9.62577        -0.000000     -0.000000     -0.000000
      1.92858     -1.92858      9.62511         0.010704     -0.010704      0.014521
      1.92763      1.92627      1.92432         0.017996     -0.017996      0.007279
     -1.92759      1.92759      3.87494         0.001381     -0.001381     -0.026905
      1.92676      1.92715      3.85031        -0.000000     -0.000000     -0.000000
     -1.93173      1.93173      7.67638        -0.001381      0.001381      0.026905
      1.92437      1.92953      7.70463         0.013116     -0.013116      0.041184
      1.92897     -1.92897      7.70042        -0.000000     -0.000000     -0.000000
      1.92855      1.92536     11.54691        -0.013116      0.013116     -0.041184
      1.92440      3.88315      5.77364         0.001178      0.004013     -0.002563
      1.92876     -0.01237      5.77262         0.027351      0.007638      0.008566
      1.92532      3.85592      9.62502         0.005708     -0.021801      0.013449
      1.92760     -0.00103      9.62652        -0.005708      0.021801     -0.013449
      1.92475      3.86668      1.92800        -0.027351     -0.007638     -0.008566
     -1.92981      3.83007      5.77768        -0.001178     -0.004013      0.002563
      0.02384      5.78371      5.77768         0.004013      0.001178      0.002563
     -0.02924      1.92951      5.77364        -0.004013     -0.001178     -0.002563
      3.86628      1.92514      5.77262        -0.007638     -0.027351      0.008566
     -0.00202      1.92859      9.62502         0.021801     -0.005708      0.013449
      3.85494      1.92631      9.62652        -0.021801      0.005708     -0.013449
     -0.01277      1.92916      1.92800         0.007638      0.027351     -0.008566
 -----------------------------------------------------------------------------------
    total drift:                               -0.000141      0.000141     -0.010342


--------------------------------------------------------------------------------------------------------



  FREE ENERGIE OF THE ION-ELECTRON SYSTEM (eV)
  ---------------------------------------------------
  free  energy   TOTEN  =      -206.92840731 eV

  energy  without entropy=     -206.92840731  energy(sigma->0) =     -206.92840731
 


--------------------------------------------------------------------------------------------------------


    POTLOK:  cpu time    0.0863: real time    0.0866


--------------------------------------------------------------------------------------------------------


     LOOP+:  cpu time  102.3644: real time  106.3208
    4ORBIT:  cpu time    0.0000: real time    0.0000
 


 total charge     
 
# of ion       s       p       d       f       tot
--------------------------------------------------
    1        2.000   5.701   0.497   0.192   8.391
    2        2.000   5.701   0.497   0.193   8.392
    3        2.000   5.702   0.498   0.194   8.395
    4        2.000   5.702   0.499   0.194   8.395
    5        2.000   5.702   0.498   0.194   8.395
    6        2.001   5.701   0.497   0.193   8.392
    7        0.360   0.576   4.868   0.000   5.804
    8        0.417   0.617   8.314   0.000   9.348
    9        0.432   0.647   8.322   0.000   9.401
   10        0.432   0.655   8.313   0.000   9.400
   11        0.432   0.647   8.322   0.000   9.401
   12        0.417   0.617   8.314   0.000   9.348
   13        1.563   3.459   0.000   0.000   5.022
   14        1.562   3.432   0.000   0.000   4.994
   15        1.563   3.459   0.000   0.000   5.022
   16        1.562   3.432   0.000   0.000   4.994
   17        1.565   3.425   0.000   0.000   4.991
   18        1.562   3.432   0.000   0.000   4.994
   19        1.563   3.460   0.000   0.000   5.023
   20        1.563   3.440   0.000   0.000   5.003
   21        1.563   3.441   0.000   0.000   5.004
   22        1.563   3.441   0.000   0.000   5.004
   23        1.563   3.440   0.000   0.000   5.003
   24        1.563   3.460   0.000   0.000   5.023
   25        1.562   3.456   0.000   0.000   5.018
   26        1.562   3.456   0.000   0.000   5.018
   27        1.563   3.429   0.000   0.000   4.992
   28        1.562   3.433   0.000   0.000   4.995
   29        1.562   3.433   0.000   0.000   4.995
   30        1.563   3.429   0.000   0.000   4.992
--------------------------------------------------
tot         42.621  99.926  49.439   1.162 193.148

 


 magnetization (x)
 
# of ion       s       p       d       f       tot
--------------------------------------------------
    1        0.001  -0.001   0.005   0.002   0.007
    2        0.001  -0.000   0.006   0.003   0.009
    3        0.001   0.000   0.007   0.003   0.011
    4        0.001   0.000   0.007   0.003   0.011
    5        0.001   0.000   0.007   0.003   0.011
    6        0.001  -0.000   0.006   0.003   0.009
    7        0.025   0.033   3.210   0.000   3.269
    8        0.014   0.003   1.456   0.000   1.473
    9        0.018   0.007   1.366   0.000   1.391
   10        0.017   0.012   1.316   0.000   1.346
   11        0.018   0.007   1.366   0.000   1.391
   12        0.014   0.003   1.456   0.000   1.473
   13        0.005  -0.040   0.000   0.000  -0.035
   14        0.005  -0.098   0.000   0.000  -0.093
   15        0.005  -0.040   0.000   0.000  -0.035
   16        0.005  -0.097   0.000   0.000  -0.092
   17        0.006  -0.133   0.000   0.000  -0.127
   18        0.005  -0.097   0.000   0.000  -0.092
   19        0.004  -0.032   0.000   0.000  -0.027
   20        0.006  -0.095   0.000   0.000  -0.089
   21        0.006  -0.085   0.000   0.000  -0.079
   22        0.006  -0.085   0.000   0.000  -0.079
   23        0.006  -0.095   0.000   0.000  -0.089
   24        0.004  -0.032   0.000   0.000  -0.027
   25        0.004  -0.037   0.000   0.000  -0.033
   26        0.004  -0.037   0.000   0.000  -0.033
   27        0.006  -0.105   0.000   0.000  -0.100
   28        0.006  -0.093   0.000   0.000  -0.088
   29        0.006  -0.093   0.000   0.000  -0.088
   30        0.006  -0.105   0.000   0.000  -0.100
--------------------------------------------------
tot          0.206  -1.335  10.207   0.017   9.095

 
 BZINTS: Fermi energy:  7.544971;231.000000 electrons
         Band energy:-251.293495;  BLOECHL correction: -0.027109

 total amount of memory used by VASP MPI-rank0    76544. kBytes
=======================================================================

   base      :      30000. kBytes
   nonlr-proj:       6693. kBytes
   fftplans  :       2820. kBytes
   grid      :       8208. kBytes
   one-center:        294. kBytes
   wavefun   :      28529. kBytes
 
  
  
 General timing and accounting informations for this job:
 ========================================================
  
                  Total CPU time used (sec):      111.362
                            User time (sec):      108.566
                          System time (sec):        2.796
                         Elapsed time (sec):      115.548
  
                   Maximum memory used (kb):      132508.
                   Average memory used (kb):           0.
  
                          Minor page faults:        39462
                          Major page faults:            0
                 Voluntary context switches:         1168
