 vasp.5.4.4.18Apr17-6-g9f103f2a35 (build Oct 03 2018 13:58:34) complex          
  
 executed on             LinuxIFC date 2019.06.04  02:08:13
 running on   40 total cores
 distrk:  each k-point on   20 cores,    2 groups
 distr:  one band on NCORES_PER_BAND=  10 cores,    2 groups


--------------------------------------------------------------------------------------------------------


 INCAR:
 POTCAR:    PAW_PBE La 06Sep2000                  
 POTCAR:    PAW_PBE Mn 06Sep2000                  
 POTCAR:    PAW_PBE Ni 02Aug2007                  
 POTCAR:    PAW_PBE O 08Apr2002                   

 ----------------------------------------------------------------------------- 
|                                                                             |
|           W    W    AA    RRRRR   N    N  II  N    N   GGGG   !!!           |
|           W    W   A  A   R    R  NN   N  II  NN   N  G    G  !!!           |
|           W    W  A    A  R    R  N N  N  II  N N  N  G       !!!           |
|           W WW W  AAAAAA  RRRRR   N  N N  II  N  N N  G  GGG   !            |
|           WW  WW  A    A  R   R   N   NN  II  N   NN  G    G                |
|           W    W  A    A  R    R  N    N  II  N    N   GGGG   !!!           |
|                                                                             |
|      You have enabled k-point parallelism (KPAR>1).                         |
|      This developmental code was originally  written by Paul Kent at ORNL,  |
|      and carefully double checked in Vienna.                                |
|      GW as well as linear response parallelism added by Martijn Marsman     |
|      and Georg Kresse.                                                      |
|      Carefully verify results versus KPAR=1.                                |
|      Report problems to Paul Kent and Vienna.                               |
|                                                                             |
 ----------------------------------------------------------------------------- 

 POTCAR:    PAW_PBE La 06Sep2000                  
   VRHFIN =La : [core=Kr4d]                                                     
   LEXCH  = PE                                                                  
   EATOM  =   865.9763 eV,   63.6475 Ry                                         
                                                                                
   TITEL  = PAW_PBE La 06Sep2000                                                
   LULTRA =        F    use ultrasoft PP ?                                      
   IUNSCR =        1    unscreen: 0-lin 1-nonlin 2-no                           
   RPACOR =    2.300    partial core radius                                     
   POMASS =  138.900; ZVAL   =   11.000    mass and valenz                      
   RCORE  =    2.800    outmost cutoff radius                                   
   RWIGS  =    2.900; RWIGS  =    1.535    wigner-seitz radius (au A)           
   ENMAX  =  219.292; ENMIN  =  164.469 eV                                      
   RCLOC  =    1.601    cutoff for local pot                                    
   LCOR   =        T    correct aug charges                                     
   LPAW   =        T    paw PP                                                  
   EAUG   =  583.575                                                            
   DEXC   =    0.000                                                            
   RMAX   =    2.853    core radius for proj-oper                               
   RAUG   =    1.300    factor for augmentation sphere                          
   RDEP   =    2.802    radius for radial grids                                 
   RDEPT  =    2.156    core radius for aug-charge                              
                                                                                
   Atomic configuration                                                         
   14 entries                                                                   
     n  l   j            E        occ.                                          
     1  0  0.50    -38741.0879   2.0000                                         
     2  0  0.50     -6166.6801   2.0000                                         
     2  1  1.50     -5526.1593   6.0000                                         
     3  0  0.50     -1319.0200   2.0000                                         
     3  1  1.50     -1114.5963   6.0000                                         
     3  2  2.50      -821.1793  10.0000                                         
     4  0  0.50      -266.3851   2.0000                                         
     4  1  1.50      -199.9276   6.0000                                         
     4  2  2.50      -103.8239  10.0000                                         
     5  0  0.50       -38.9172   2.0000                                         
     6  0  0.50        -3.6792   2.0000                                         
     5  1  1.50       -22.3948   6.0000                                         
     5  2  2.50        -3.0911   0.9999                                         
     4  3  2.50        -4.3603   0.0001                                         
   Description                                                                  
     l       E           TYP  RCUT    TYP  RCUT                                 
     0    -38.9171645     23  2.800                                             
     0     -3.6792381     23  2.800                                             
     1    -22.3948300     23  2.500                                             
     1     27.2116520     23  2.500                                             
     2     -3.0910934     23  2.500                                             
     2      1.0119135     23  2.500                                             
     3     -4.3602911     23  2.800                                             
     3     -5.7208737     23  2.800                                             
  local pseudopotential read in
  partial core-charges read in
  partial kinetic energy density read in
  atomic valenz-charges read in
  non local Contribution for L=           0  read in
    real space projection operators read in
  non local Contribution for L=           0  read in
    real space projection operators read in
  non local Contribution for L=           1  read in
    real space projection operators read in
  non local Contribution for L=           1  read in
    real space projection operators read in
  non local Contribution for L=           2  read in
    real space projection operators read in
  non local Contribution for L=           2  read in
    real space projection operators read in
  non local Contribution for L=           3  read in
    real space projection operators read in
  non local Contribution for L=           3  read in
    real space projection operators read in
    PAW grid and wavefunctions read in
 
   number of l-projection  operators is LMAX  =           8
   number of lm-projection operators is LMMAX =          32
 
 POTCAR:    PAW_PBE Mn 06Sep2000                  
   VRHFIN =Mn: d6 s1                                                            
   LEXCH  = PE                                                                  
   EATOM  =   416.7541 eV,   30.6306 Ry                                         
                                                                                
   TITEL  = PAW_PBE Mn 06Sep2000                                                
   LULTRA =        F    use ultrasoft PP ?                                      
   IUNSCR =        1    unscreen: 0-lin 1-nonlin 2-no                           
   RPACOR =    2.000    partial core radius                                     
   POMASS =   54.938; ZVAL   =    7.000    mass and valenz                      
   RCORE  =    2.300    outmost cutoff radius                                   
   RWIGS  =    2.500; RWIGS  =    1.323    wigner-seitz radius (au A)           
   ENMAX  =  269.864; ENMIN  =  202.398 eV                                      
   RCLOC  =    1.725    cutoff for local pot                                    
   LCOR   =        T    correct aug charges                                     
   LPAW   =        T    paw PP                                                  
   EAUG   =  500.711                                                            
   DEXC   =    0.000                                                            
   RMAX   =    2.343    core radius for proj-oper                               
   RAUG   =    1.300    factor for augmentation sphere                          
   RDEP   =    2.338    radius for radial grids                                 
   RDEPT  =    1.911    core radius for aug-charge                              
                                                                                
   Atomic configuration                                                         
    9 entries                                                                   
     n  l   j            E        occ.                                          
     1  0  0.50     -6424.8288   2.0000                                         
     2  0  0.50      -739.1154   2.0000                                         
     2  1  1.50      -625.3949   6.0000                                         
     3  0  0.50       -81.6100   2.0000                                         
     3  1  1.50       -50.4667   6.0000                                         
     3  2  2.50        -3.3745   6.0000                                         
     4  0  0.50        -4.1331   1.0000                                         
     4  1  0.50        -4.0817   0.0000                                         
     4  3  2.50        -1.3606   0.0000                                         
   Description                                                                  
     l       E           TYP  RCUT    TYP  RCUT                                 
     2     -3.3744664     23  2.300                                             
     2     -4.7350490     23  2.300                                             
     0     -4.1331408     23  2.300                                             
     0      7.6656614     23  2.300                                             
     1     -2.7211652     23  2.300                                             
     1     20.4087390     23  2.300                                             
  local pseudopotential read in
  partial core-charges read in
  partial kinetic energy density read in
  atomic valenz-charges read in
  non local Contribution for L=           2  read in
    real space projection operators read in
  non local Contribution for L=           2  read in
    real space projection operators read in
  non local Contribution for L=           0  read in
    real space projection operators read in
  non local Contribution for L=           0  read in
    real space projection operators read in
  non local Contribution for L=           1  read in
    real space projection operators read in
  non local Contribution for L=           1  read in
    real space projection operators read in
    PAW grid and wavefunctions read in
 
   number of l-projection  operators is LMAX  =           6
   number of lm-projection operators is LMMAX =          18
 
 POTCAR:    PAW_PBE Ni 02Aug2007                  
   VRHFIN =Ni:                                                                  
   LEXCH  = PE                                                                  
   EATOM  =  1077.6739 eV,   79.2068 Ry                                         
                                                                                
   TITEL  = PAW_PBE Ni 02Aug2007                                                
   LULTRA =        F    use ultrasoft PP ?                                      
   IUNSCR =        1    unscreen: 0-lin 1-nonlin 2-no                           
   RPACOR =    2.000    partial core radius                                     
   POMASS =   58.690; ZVAL   =   10.000    mass and valenz                      
   RCORE  =    2.300    outmost cutoff radius                                   
   RWIGS  =    2.430; RWIGS  =    1.286    wigner-seitz radius (au A)           
   ENMAX  =  269.532; ENMIN  =  202.149 eV                                      
   RCLOC  =    1.201    cutoff for local pot                                    
   LCOR   =        T    correct aug charges                                     
   LPAW   =        T    paw PP                                                  
   EAUG   =  544.565                                                            
   DEXC   =    0.000                                                            
   RMAX   =    2.357    core radius for proj-oper                               
   RAUG   =    1.300    factor for augmentation sphere                          
   RDEP   =    2.390    radius for radial grids                                 
   RDEPT  =    1.838    core radius for aug-charge                              
                                                                                
   Atomic configuration                                                         
    9 entries                                                                   
     n  l   j            E        occ.                                          
     1  0  0.50     -8206.4253   2.0000                                         
     2  0  0.50      -976.1748   2.0000                                         
     2  1  1.50      -839.0571   6.0000                                         
     3  0  0.50      -105.9991   2.0000                                         
     3  1  1.50       -66.4603   6.0000                                         
     3  2  2.50        -4.6458   9.0000                                         
     4  0  0.50        -4.4926   1.0000                                         
     4  1  1.50        -4.0817   0.0000                                         
     4  3  2.50        -1.3606   0.0000                                         
   Description                                                                  
     l       E           TYP  RCUT    TYP  RCUT                                 
     2     -4.6457903     23  2.300                                             
     2     -6.0063729     23  2.300                                             
     0     -4.4925590     23  2.300                                             
     0      5.0102601     23  2.300                                             
     1     -2.7211652     23  2.300                                             
     1     16.5183231     23  2.300                                             
  local pseudopotential read in
  partial core-charges read in
  partial kinetic energy density read in
  atomic valenz-charges read in
  non local Contribution for L=           2  read in
    real space projection operators read in
  non local Contribution for L=           2  read in
    real space projection operators read in
  non local Contribution for L=           0  read in
    real space projection operators read in
  non local Contribution for L=           0  read in
    real space projection operators read in
  non local Contribution for L=           1  read in
    real space projection operators read in
  non local Contribution for L=           1  read in
    real space projection operators read in
    PAW grid and wavefunctions read in
 
   number of l-projection  operators is LMAX  =           6
   number of lm-projection operators is LMMAX =          18
 
 POTCAR:    PAW_PBE O 08Apr2002                   
   VRHFIN =O: s2p4                                                              
   LEXCH  = PE                                                                  
   EATOM  =   432.3788 eV,   31.7789 Ry                                         
                                                                                
   TITEL  = PAW_PBE O 08Apr2002                                                 
   LULTRA =        F    use ultrasoft PP ?                                      
   IUNSCR =        1    unscreen: 0-lin 1-nonlin 2-no                           
   RPACOR =    1.200    partial core radius                                     
   POMASS =   16.000; ZVAL   =    6.000    mass and valenz                      
   RCORE  =    1.520    outmost cutoff radius                                   
   RWIGS  =    1.550; RWIGS  =    0.820    wigner-seitz radius (au A)           
   ENMAX  =  400.000; ENMIN  =  300.000 eV                                      
   ICORE  =        2    local potential                                         
   LCOR   =        T    correct aug charges                                     
   LPAW   =        T    paw PP                                                  
   EAUG   =  605.392                                                            
   DEXC   =    0.000                                                            
   RMAX   =    1.553    core radius for proj-oper                               
   RAUG   =    1.300    factor for augmentation sphere                          
   RDEP   =    1.550    radius for radial grids                                 
   RDEPT  =    1.329    core radius for aug-charge                              
                                                                                
   Atomic configuration                                                         
    4 entries                                                                   
     n  l   j            E        occ.                                          
     1  0  0.50      -514.6923   2.0000                                         
     2  0  0.50       -23.9615   2.0000                                         
     2  1  0.50        -9.0305   4.0000                                         
     3  2  1.50        -9.5241   0.0000                                         
   Description                                                                  
     l       E           TYP  RCUT    TYP  RCUT                                 
     0    -23.9615318     23  1.200                                             
     0     -9.5240782     23  1.200                                             
     1     -9.0304911     23  1.520                                             
     1      8.1634956     23  1.520                                             
     2     -9.5240782      7  1.500                                             
  local pseudopotential read in
  partial core-charges read in
  partial kinetic energy density read in
  kinetic energy density of atom read in
  atomic valenz-charges read in
  non local Contribution for L=           0  read in
    real space projection operators read in
  non local Contribution for L=           0  read in
    real space projection operators read in
  non local Contribution for L=           1  read in
    real space projection operators read in
  non local Contribution for L=           1  read in
    real space projection operators read in
    PAW grid and wavefunctions read in
 
   number of l-projection  operators is LMAX  =           4
   number of lm-projection operators is LMMAX =           8
 
 Optimization of the real space projectors (new method)

 maximal supplied QI-value         = 13.42
 optimisation between [QCUT,QGAM] = [ 11.67, 23.35] = [ 38.16,152.62] Ry 
 Optimized for a Real-space Cutoff    1.63 Angstroem

   l    n(q)    QCUT    max X(q) W(low)/X(q) W(high)/X(q)  e(spline) 
   0     11    11.673    13.882    0.27E-04    0.79E-05    0.11E-06
   0     11    11.673    12.184    0.39E-04    0.13E-04    0.19E-06
   1     11    11.673     4.523    0.73E-05    0.76E-05    0.12E-06
   1     11    11.673     4.424    0.87E-05    0.13E-04    0.19E-06
   2     10    11.673    52.481    0.65E-04    0.36E-04    0.18E-06
   2     10    11.673    38.501    0.61E-04    0.33E-04    0.17E-06
   3     10    11.673    65.631    0.17E-03    0.14E-03    0.37E-06
   3     10    11.673    56.854    0.17E-03    0.14E-03    0.37E-06
 Optimization of the real space projectors (new method)

 maximal supplied QI-value         = 16.25
 optimisation between [QCUT,QGAM] = [ 11.54, 23.24] = [ 37.28,151.24] Ry 
 Optimized for a Real-space Cutoff    1.53 Angstroem

   l    n(q)    QCUT    max X(q) W(low)/X(q) W(high)/X(q)  e(spline) 
   2     10    11.539   110.144    0.12E-03    0.13E-03    0.25E-06
   2     10    11.539   103.200    0.12E-03    0.13E-03    0.25E-06
   0     11    11.539    68.437    0.46E-04    0.21E-04    0.32E-06
   0     11    11.539    33.971    0.37E-04    0.19E-04    0.29E-06
   1     10    11.539    17.065    0.51E-04    0.22E-04    0.13E-06
   1     10    11.539    12.540    0.41E-04    0.18E-04    0.11E-06
 Optimization of the real space projectors (new method)

 maximal supplied QI-value         = 16.25
 optimisation between [QCUT,QGAM] = [ 11.54, 23.24] = [ 37.28,151.24] Ry 
 Optimized for a Real-space Cutoff    1.45 Angstroem

   l    n(q)    QCUT    max X(q) W(low)/X(q) W(high)/X(q)  e(spline) 
   2      9    11.539    60.317    0.19E-03    0.47E-04    0.16E-06
   2      9    11.539    55.921    0.19E-03    0.48E-04    0.16E-06
   0     10    11.539    51.690    0.80E-04    0.50E-04    0.24E-06
   0     10    11.539    30.015    0.73E-04    0.45E-04    0.22E-06
   1     10    11.539    18.849    0.87E-04    0.16E-03    0.71E-07
   1     10    11.539    14.624    0.73E-04    0.13E-03    0.64E-07
 Optimization of the real space projectors (new method)

 maximal supplied QI-value         = 24.76
 optimisation between [QCUT,QGAM] = [ 11.64, 23.27] = [ 37.91,151.63] Ry 
 Optimized for a Real-space Cutoff    1.14 Angstroem

   l    n(q)    QCUT    max X(q) W(low)/X(q) W(high)/X(q)  e(spline) 
   0      8    11.635    20.381    0.10E-03    0.33E-03    0.24E-06
   0      8    11.635    15.268    0.11E-03    0.35E-03    0.26E-06
   1      7    11.635     5.964    0.24E-03    0.31E-03    0.30E-06
   1      7    11.635     5.382    0.22E-03    0.25E-03    0.26E-06
  PAW_PBE La 06Sep2000                  :
 energy of atom  1       EATOM= -865.9763
 kinetic energy error for atom=    0.0009 (will be added to EATOM!!)
  PAW_PBE Mn 06Sep2000                  :
 energy of atom  2       EATOM= -416.7541
 kinetic energy error for atom=    0.0024 (will be added to EATOM!!)
  PAW_PBE Ni 02Aug2007                  :
 energy of atom  3       EATOM=-1077.6739
 kinetic energy error for atom=    0.0030 (will be added to EATOM!!)
  PAW_PBE O 08Apr2002                   :
 energy of atom  4       EATOM= -432.3788
 kinetic energy error for atom=    0.0208 (will be added to EATOM!!)
 
 
 POSCAR: SCEL6_3_2_1_1_1_0/2                     
  positions in direct lattice
  velocities in cartesian coordinates
 exchange correlation table for  LEXCH =        8
   RHO(1)=    0.500       N(1)  =     2000
   RHO(2)=  100.500       N(2)  =     4000
 


--------------------------------------------------------------------------------------------------------


 ion  position               nearest neighbor table
   1  0.167  0.167  0.333-  26 2.75  30 2.75  17 2.75  16 2.75  14 2.75  13 2.75  29 2.76  27 2.76
                            24 2.76  19 2.76  23 2.76  20 2.76  12 3.36  11 3.36   7 3.38  10 3.38
   2  0.328  0.338  0.673-  28 2.69  24 2.71  18 2.71  22 2.75  25 2.75  29 2.76  16 2.76  15 2.77
                            19 2.77  13 2.81  23 2.81  12 3.33  11 3.35   9 3.36   8 3.36   8 3.39
   3  0.495  0.506  0.994-  28 2.69  22 2.71  15 2.71  24 2.75  25 2.75  27 2.76  17 2.76  18 2.77
                            21 2.77  14 2.81  23 2.81  11 3.33  12 3.35   8 3.36   9 3.36   9 3.39
   4  0.667  0.667  0.333-  26 2.75  30 2.75  17 2.75  16 2.75  14 2.75  13 2.75  29 2.76  27 2.76
                            21 2.76  22 2.76  20 2.76  23 2.76  12 3.36  11 3.36   7 3.38  10 3.38
   5  0.838  0.828  0.673-  28 2.69  21 2.71  18 2.71  19 2.75  25 2.75  29 2.76  16 2.76  15 2.77
                            22 2.77  13 2.81  20 2.81  12 3.33  11 3.35   9 3.36   8 3.36   8 3.39
   6  0.006  0.995  0.994-  28 2.69  19 2.71  15 2.71  21 2.75  25 2.75  27 2.76  17 2.76  18 2.77
                            24 2.77  14 2.81  20 2.81  11 3.33  12 3.35   8 3.36   9 3.36   9 3.39
   7  0.667  0.167  0.333-  30 1.90  26 1.90  20 1.97  23 1.97  13 1.98  14 1.98   1 3.38   4 3.38
                             4 3.38   1 3.38
   8  0.834  0.334  0.667-  19 1.90  22 1.90  18 1.92  13 1.92  25 1.95  29 1.96   3 3.36   6 3.36
                             5 3.36   2 3.36   1 3.38   4 3.38   5 3.39   2 3.39
   9  0.500  1.000  1.000-  21 1.90  24 1.90  15 1.92  14 1.92  25 1.95  27 1.96   2 3.36   5 3.36
                             3 3.36   6 3.36   1 3.38   4 3.38   6 3.39   3 3.39
  10  0.167  0.667  0.333-  16 1.90  17 1.90  20 1.93  23 1.93  27 1.94  29 1.94   1 3.38   4 3.38
                             1 3.38   4 3.38   3 3.40   6 3.40   5 3.40   2 3.40
  11  0.335  0.835  0.664-  28 1.97  26 1.98  15 1.98  16 1.99  19 1.99  22 1.99   3 3.33   6 3.33
                             5 3.35   2 3.35   1 3.36   4 3.36
  12  0.999  0.499  0.002-  28 1.97  30 1.98  18 1.98  17 1.99  21 1.99  24 1.99   2 3.33   5 3.33
                             3 3.35   6 3.35   1 3.36   4 3.36
  13  0.752  0.252  0.502-   8 1.92   7 1.98   1 2.75   4 2.75   2 2.81   5 2.81
  14  0.581  0.081  0.164-   9 1.92   7 1.98   1 2.75   4 2.75   3 2.81   6 2.81
  15  0.418  0.918  0.836-   9 1.92  11 1.98   3 2.71   6 2.71   5 2.77   2 2.77
  16  0.249  0.749  0.495-  10 1.90  11 1.99   1 2.75   4 2.75   2 2.76   5 2.76
  17  0.084  0.584  0.171-  10 1.90  12 1.99   1 2.75   4 2.75   3 2.76   6 2.76
  18  0.916  0.416  0.831-   8 1.92  12 1.98   2 2.71   5 2.71   3 2.77   6 2.77
  19  0.078  0.089  0.667-   8 1.90  11 1.99   6 2.71   5 2.75   1 2.76   2 2.77
  20  0.920  0.914  0.333-  10 1.93   7 1.97   1 2.76   4 2.76   6 2.81   5 2.81
  21  0.744  0.755  1.000-   9 1.90  12 1.99   5 2.71   6 2.75   4 2.76   3 2.77
  22  0.589  0.578  0.667-   8 1.90  11 1.99   3 2.71   2 2.75   4 2.76   5 2.77
  23  0.414  0.420  0.333-  10 1.93   7 1.97   1 2.76   4 2.76   3 2.81   2 2.81
  24  0.255  0.244  1.000-   9 1.90  12 1.99   2 2.71   3 2.75   1 2.76   6 2.77
  25  0.667  0.167  0.833-   8 1.95   9 1.95   3 2.75   6 2.75   5 2.75   2 2.75
  26  0.504  0.004  0.495-   7 1.90  11 1.98   1 2.75   4 2.75
  27  0.333  0.833  0.167-  10 1.94   9 1.96   3 2.76   6 2.76   4 2.76   1 2.76
  28  0.167  0.667  0.833-  11 1.97  12 1.97   3 2.69   6 2.69   5 2.69   2 2.69
  29  0.001  0.501  0.500-  10 1.94   8 1.96   2 2.76   5 2.76   4 2.76   1 2.76
  30  0.830  0.330  0.172-   7 1.90  12 1.98   1 2.75   4 2.75
 
  LATTYP: Found a base centered monoclinic cell.
 ALAT       =    11.0356202596
 B/A-ratio  =     0.7057972991
 C/A-ratio  =     2.3708754923
 COS(beta)  =    -0.7750701363
  
  Lattice vectors:
  
 A1 = (   3.9037700475,   3.8944554868,   3.8995907536)
 A2 = (   3.9037700475,  -3.8944554868,   3.8995907536)
 A3 = ( -11.7130403205,   0.0000000000, -23.3958084545)


Analysis of symmetry for initial positions (statically):
=====================================================================
 Subroutine PRICEL returns:
 Original cell was already a primitive cell.
 

 Routine SETGRP: Setting up the symmetry group for a 
 base centered monoclinic supercell.


 Subroutine GETGRP returns: Found  4 space group operations
 (whereof  1 operations were pure point group operations)
 out of a pool of  4 trial point group operations.


The static configuration has the point symmetry C_1 .
 The point group associated with its full space group is C_2h.


Analysis of symmetry for dynamics (positions and initial velocities):
=====================================================================
 Subroutine PRICEL returns:
 Original cell was already a primitive cell.
 

 Routine SETGRP: Setting up the symmetry group for a 
 base centered monoclinic supercell.


 Subroutine GETGRP returns: Found  4 space group operations
 (whereof  1 operations were pure point group operations)
 out of a pool of  4 trial point group operations.


The dynamic configuration has the point symmetry C_1 .
 The point group associated with its full space group is C_2h.


Analysis of structural, dynamic, and magnetic symmetry:
=====================================================================
 Subroutine PRICEL returns:
 Original cell was already a primitive cell.
 

 Routine SETGRP: Setting up the symmetry group for a 
 base centered monoclinic supercell.


 Subroutine GETGRP returns: Found  4 space group operations
 (whereof  1 operations were pure point group operations)
 out of a pool of  4 trial point group operations.


The magnetic configuration has the point symmetry C_1 .
 The point group associated with its full space group is C_2h.


 Subroutine INISYM returns: Found  4 space group operations
 (whereof  1 operations are pure point group operations),
 and found     1 'primitive' translations

 
 
 KPOINTS: Automatic mesh                          

Automatic generation of k-mesh.
 generate k-points for:    3    3    2
Space group operators:
 irot       det(A)        alpha          n_x          n_y          n_z        tau_x        tau_y        tau_z
    1     1.000000     0.000000     1.000000     0.000000     0.000000     0.000000     0.000000     0.000000
    2    -1.000000     0.000000     1.000000     0.000000     0.000000    -0.666667    -0.666667    -0.333333
    3     1.000000   180.000000     0.000000     1.000000     0.000000    -0.166667    -0.166667    -0.333333
    4    -1.000000   180.000000     0.000000     1.000000     0.000000     0.500000     0.500000     0.000000
 
 Subroutine IBZKPT returns following result:
 ===========================================
 
 Found      8 irreducible k-points:
 
 Following reciprocal coordinates:
            Coordinates               Weight
  0.000000  0.000000  0.000000      1.000000
  0.333333  0.000000  0.000000      4.000000
  0.333333  0.333333  0.000000      2.000000
 -0.333333  0.333333  0.000000      2.000000
  0.000000  0.000000  0.500000      1.000000
  0.333333 -0.000000  0.500000      4.000000
  0.333333  0.333333  0.500000      2.000000
 -0.333333  0.333333  0.500000      2.000000
 
 Following cartesian coordinates:
            Coordinates               Weight
  0.000000  0.000000  0.000000      1.000000
  0.028465 -0.042796  0.014244      4.000000
  0.056929  0.000000  0.028489      2.000000
  0.000000  0.085592  0.000000      2.000000
 -0.042706  0.000000  0.042752      1.000000
 -0.014242 -0.042796  0.056997      4.000000
  0.014223  0.000000  0.071241      2.000000
 -0.042706  0.085592  0.042752      2.000000
 
 TETIRR: Found     25 inequivalent tetrahedra from      108


--------------------------------------------------------------------------------------------------------




 Dimension of arrays:
   k-points           NKPTS =      8   k-points in BZ     NKDIM =      8   number of bands    NBANDS=    144
   number of dos      NEDOS =    301   number of ions     NIONS =     30
   non local maximal  LDIM  =      8   non local SUM 2l+1 LMDIM =     32
   total plane-waves  NPLWV = 175000
   max r-space proj   IRMAX =   8931   max aug-charges    IRDMAX=  25911
   dimension x,y,z NGX =    50 NGY =   50 NGZ =   70
   dimension x,y,z NGXF=   100 NGYF=  100 NGZF=  140
   support grid    NGXF=   100 NGYF=  100 NGZF=  140
   ions per type =               6   4   2  18
   NGX,Y,Z   is equivalent  to a cutoff of  12.31, 12.31, 13.35 a.u.
   NGXF,Y,Z  is equivalent  to a cutoff of  24.62, 24.62, 26.69 a.u.

 SYSTEM =  final                                   
 POSCAR =  SCEL6_3_2_1_1_1_0/2                     

 Startparameter for this run:
   NWRITE =      2    write-flag & timer
   PREC   = accura    normal or accurate (medium, high low for compatibility)
   ISTART =      0    job   : 0-new  1-cont  2-samecut
   ICHARG =      1    charge: 1-file 2-atom 10-const
   ISPIN  =      2    spin polarized calculation?
   LNONCOLLINEAR =      F non collinear calculations
   LSORBIT =      F    spin-orbit coupling
   INIWAV =      1    electr: 0-lowe 1-rand  2-diag
   LASPH  =      F    aspherical Exc in radial PAW
   METAGGA=      F    non-selfconsistent MetaGGA calc.

 Electronic Relaxation 1
   ENCUT  =  520.0 eV  38.22 Ry    6.18 a.u.  12.56 12.56 16.21*2*pi/ulx,y,z
   ENINI  =  520.0     initial cutoff
   ENAUG  =  605.4 eV  augmentation charge cutoff
   NELM   =    100;   NELMIN=  2; NELMDL= -5     # of ELM steps 
   EDIFF  = 0.1E-02   stopping-criterion for ELM
   LREAL  =      T    real-space projection
   NLSPLINE    = F    spline interpolate recip. space projectors
   LCOMPAT=      F    compatible to vasp.4.4
   GGA_COMPAT  = T    GGA compatible to vasp.4.4-vasp.4.6
   LMAXPAW     = -100 max onsite density
   LMAXMIX     =    6 max onsite mixed and CHGCAR
   VOSKOWN=      0    Vosko Wilk Nusair interpolation
   ROPT   =   -0.00025  -0.00025  -0.00025  -0.00025
 Ionic relaxation
   EDIFFG = 0.1E-01   stopping-criterion for IOM
   NSW    =      0    number of steps for IOM
   NBLOCK =      1;   KBLOCK =      1    inner block; outer block 
   IBRION =     -1    ionic relax: 0-MD 1-quasi-New 2-CG
   NFREE  =      0    steps in history (QN), initial steepest desc. (CG)
   ISIF   =      2    stress and relaxation
   IWAVPR =     10    prediction:  0-non 1-charg 2-wave 3-comb
   ISYM   =      2    0-nonsym 1-usesym 2-fastsym
   LCORR  =      T    Harris-Foulkes like correction to forces

   POTIM  = 0.5000    time-step for ionic-motion
   TEIN   =    0.0    initial temperature
   TEBEG  =    0.0;   TEEND  =   0.0 temperature during run
   SMASS  =  -3.00    Nose mass-parameter (am)
   estimated Nose-frequenzy (Omega)   =  0.10E-29 period in steps =****** mass=  -0.104E-26a.u.
   SCALEE = 1.0000    scale energy and forces
   NPACO  =    256;   APACO  = 16.0  distance and # of slots for P.C.
   PSTRESS=    0.0 pullay stress

  Mass of Ions in am
   POMASS = 138.90 54.94 58.69 16.00
  Ionic Valenz
   ZVAL   =  11.00  7.00 10.00  6.00
  Atomic Wigner-Seitz radii
   RWIGS  =  -1.00 -1.00 -1.00 -1.00
  virtual crystal weights 
   VCA    =   1.00  1.00  1.00  1.00
   NELECT =     222.0000    total number of electrons
   NUPDOWN=      -1.0000    fix difference up-down

 DOS related values:
   EMIN   =  10.00;   EMAX   =-10.00  energy-range for DOS
   EFERMI =   0.00
   ISMEAR =    -5;   SIGMA  =   0.05  broadening in eV -4-tet -1-fermi 0-gaus

 Electronic relaxation 2 (details)
   IALGO  =     68    algorithm
   LDIAG  =      T    sub-space diagonalisation (order eigenvalues)
   LSUBROT=      F    optimize rotation matrix (better conditioning)
   TURBO    =      0    0=normal 1=particle mesh
   IRESTART =      0    0=no restart 2=restart with 2 vectors
   NREBOOT  =      0    no. of reboots
   NMIN     =      0    reboot dimension
   EREF     =   0.00    reference energy to select bands
   IMIX   =      4    mixing-type and parameters
     AMIX     =   0.40;   BMIX     =  1.00
     AMIX_MAG =   1.60;   BMIX_MAG =  1.00
     AMIN     =   0.10
     WC   =   100.;   INIMIX=   1;  MIXPRE=   1;  MAXMIX= -45

 Intra band minimization:
   WEIMIN = 0.0000     energy-eigenvalue tresh-hold
   EBREAK =  0.17E-05  absolut break condition
   DEPER  =   0.30     relativ break condition  

   TIME   =   0.40     timestep for ELM

  volume/ion in A,a.u.               =      11.85        79.99
  Fermi-wavevector in a.u.,A,eV,Ry     =   1.399163  2.644034 26.635538  1.957657
  Thomas-Fermi vector in A             =   2.522249
 
 Write flags
   LWAVE        =      F    write WAVECAR
   LDOWNSAMPLE  =      F    k-point downsampling of WAVECAR
   LCHARG       =      T    write CHGCAR
   LVTOT        =      F    write LOCPOT, total local potential
   LVHAR        =      F    write LOCPOT, Hartree potential only
   LELF         =      F    write electronic localiz. function (ELF)
   LORBIT       =     11    0 simple, 1 ext, 2 COOP (PROOUT), +10 PAW based schemes


 Dipole corrections
   LMONO  =      F    monopole corrections only (constant potential shift)
   LDIPOL =      F    correct potential (dipole corrections)
   IDIPOL =      0    1-x, 2-y, 3-z, 4-all directions 
   EPSILON=  1.0000000 bulk dielectric constant

 LDA+U is selected, type is set to LDAUTYPE =  2
   angular momentum for each species LDAUL =     0    2    2    0
   U (eV)           for each species LDAUU =   0.0  3.9  6.2  0.0
   J (eV)           for each species LDAUJ =   0.0  0.0  0.0  0.0
 Exchange correlation treatment:
   GGA     =    --    GGA type
   LEXCH   =     8    internal setting for exchange type
   VOSKOWN=      0    Vosko Wilk Nusair interpolation
   LHFCALC =     F    Hartree Fock is set to
   LHFONE  =     F    Hartree Fock one center treatment
   AEXX    =    0.0000 exact exchange contribution

 Linear response parameters
   LEPSILON=     F    determine dielectric tensor
   LRPA    =     F    only Hartree local field effects (RPA)
   LNABLA  =     F    use nabla operator in PAW spheres
   LVEL    =     F    velocity operator in full k-point grid
   LINTERFAST=   F  fast interpolation
   KINTER  =     0    interpolate to denser k-point grid
   CSHIFT  =0.1000    complex shift for real part using Kramers Kronig
   OMEGAMAX=  -1.0    maximum frequency
   DEG_THRESHOLD= 0.2000000E-02 threshold for treating states as degnerate
   RTIME   =   -0.100 relaxation time in fs
  (WPLASMAI=    0.000 imaginary part of plasma frequency in eV, 0.658/RTIME)
   DFIELD  = 0.0000000 0.0000000 0.0000000 field for delta impulse in time
 
 Orbital magnetization related:
   ORBITALMAG=     F  switch on orbital magnetization
   LCHIMAG   =     F  perturbation theory with respect to B field
   DQ        =  0.001000  dq finite difference perturbation B field
   LLRAUG    =     F  two centre corrections for induced B field



--------------------------------------------------------------------------------------------------------


 Static calculation
 charge density and potential will be updated during run
 spin polarized calculation
 RMM-DIIS sequential band-by-band and
  variant of blocked Davidson during initial phase
 perform sub-space diagonalisation
    before iterative eigenvector-optimisation
 modified Broyden-mixing scheme, WC =      100.0
 initial mixing is a Kerker type mixing with AMIX =  0.4000 and BMIX =      1.0000
 Hartree-type preconditioning will be used
 using additional bands           33
 real space projection scheme for non local part
 use partial core corrections
 calculate Harris-corrections to forces 
   (improved forces if not selfconsistent)
 use gradient corrections 
 use of overlap-Matrix (Vanderbilt PP)
 Fermi weights with tetrahedron method with Bloechl corrections


--------------------------------------------------------------------------------------------------------


  energy-cutoff  :      520.00
  volume of cell :      355.61
      direct lattice vectors                 reciprocal lattice vectors
     3.903770047 -3.894455487  3.899590754     0.085393824 -0.128387653  0.042733240
     3.903770047  3.894455487  3.899590754     0.085393824  0.128387653  0.042733240
    -3.902039869  0.000000000  7.797445440    -0.085412837  0.000000000  0.085504376

  length of vectors
     6.753740606  6.753740606  8.719293007     0.160005076  0.160005076  0.120856737


 
 k-points in units of 2pi/SCALE and weight: Automatic mesh                          
   0.00000000  0.00000000  0.00000000       0.056
   0.02846461 -0.04279588  0.01424441       0.222
   0.05692922  0.00000000  0.02848883       0.111
   0.00000000  0.08559177  0.00000000       0.111
  -0.04270642  0.00000000  0.04275219       0.056
  -0.01424181 -0.04279588  0.05699660       0.222
   0.01422280  0.00000000  0.07124101       0.111
  -0.04270642  0.08559177  0.04275219       0.111
 
 k-points in reciprocal lattice and weights: Automatic mesh                          
   0.00000000  0.00000000  0.00000000       0.056
   0.33333333  0.00000000  0.00000000       0.222
   0.33333333  0.33333333  0.00000000       0.111
  -0.33333333  0.33333333  0.00000000       0.111
   0.00000000  0.00000000  0.50000000       0.056
   0.33333333 -0.00000000  0.50000000       0.222
   0.33333333  0.33333333  0.50000000       0.111
  -0.33333333  0.33333333  0.50000000       0.111
 
 position of ions in fractional coordinates (direct lattice) 
   0.16666670  0.16666670  0.33333330
   0.32773605  0.33799793  0.67305167
   0.49533537  0.50559725  0.99361503
   0.66666670  0.66666670  0.33333330
   0.83799793  0.82773605  0.67305167
   0.00559725  0.99533537  0.99361503
   0.66666670  0.16666670  0.33333330
   0.83377785  0.33377785  0.66677719
   0.49955545  0.99955545  0.99988951
   0.16666670  0.66666670  0.33333330
   0.33469671  0.83469671  0.66440211
   0.99863659  0.49863659  0.00226459
   0.75205396  0.25205396  0.50244624
   0.58127934  0.08127934  0.16422046
   0.41782095  0.91782095  0.83576246
   0.24889722  0.74889722  0.49522182
   0.08443608  0.58443608  0.17144488
   0.91551245  0.41551245  0.83090414
   0.07806017  0.08910830  0.66668261
   0.91951554  0.91381786  0.33333330
   0.74422500  0.75527313  0.99998409
   0.58910830  0.57806017  0.66668261
   0.41381786  0.41951554  0.33333330
   0.25527313  0.24422500  0.99998409
   0.66666670  0.16666670  0.83333330
   0.50356057  0.00356057  0.49455181
   0.33258629  0.83258629  0.16689668
   0.16666670  0.66666670  0.83333330
   0.00074701  0.50074701  0.49977002
   0.82977273  0.32977273  0.17211489
 
 position of ions in cartesian coordinates  (Angst):
   0.00057712  0.00000000  3.89901206
  -0.02740208  0.03996442  7.84417372
   0.03028532  0.03996442 11.65088661
   3.90434716  0.00000000  7.79860282
   3.87636797 -0.03996442 11.74376447
   0.03028532  3.85449107 11.65088661
   1.95246214 -1.94722774  5.84880744
   1.95607780 -1.94722774  9.75214821
   1.95057548  1.94722774 13.64250287
   1.95246214  1.94722774  5.84880744
   1.97251950  1.94722774  9.74079495
   5.83617365 -1.94722774  5.85641069
   1.95924119 -1.94722774  7.83340714
   1.94568192 -1.94722774  3.86420775
   1.95286037  1.94722774 11.72526900
   1.96278474  1.94722774  7.75245505
   1.94213837  1.94722774  3.94515983
   1.95379409 -1.94722774 11.66938207
  -1.94883483  0.04302647  5.85030988
   5.85623219 -0.02218933  9.74839820
   1.95171807  0.04302647 13.64475044
   1.95493521 -0.04302647  9.74990063
   1.95246214  0.02218933  5.84880744
  -1.95205197 -0.04302647  9.74515969
   0.00144221 -1.94722774  9.74753016
   0.04992338 -1.94722774  5.83380566
   3.89732835  1.94722774  5.84506395
   0.00144221  1.94722774  9.74753016
   0.00759476  1.94722774  5.85255093
   3.85499973 -1.94722774  5.86380922
 


--------------------------------------------------------------------------------------------------------


 k-point  1 :   0.0000 0.0000 0.0000  plane waves:    9615
 k-point  2 :   0.3333 0.0000 0.0000  plane waves:    9578
 k-point  3 :   0.3333 0.3333 0.0000  plane waves:    9577
 k-point  4 :  -0.3333 0.3333 0.0000  plane waves:    9534
 k-point  5 :   0.0000 0.0000 0.5000  plane waves:    9652
 k-point  6 :   0.3333-0.0000 0.5000  plane waves:    9579
 k-point  7 :   0.3333 0.3333 0.5000  plane waves:    9586
 k-point  8 :  -0.3333 0.3333 0.5000  plane waves:    9542

 maximum and minimum number of plane-waves per node :       986      940

 maximum number of plane-waves:      9652
 maximum index in each direction: 
   IXMAX=   12   IYMAX=   12   IZMAX=   16
   IXMIN=  -12   IYMIN=  -12   IZMIN=  -16


 real space projection operators:
  total allocation   :      22043.86 KBytes
  max/ min on nodes  :       2216.50       2197.39


 parallel 3D FFT for wavefunctions:
    minimum data exchange during FFTs selected (reduces bandwidth)
 parallel 3D FFT for charge:
    minimum data exchange during FFTs selected (reduces bandwidth)


 total amount of memory used by VASP MPI-rank0    67443. kBytes
=======================================================================

   base      :      30000. kBytes
   nonlr-proj:       7260. kBytes
   fftplans  :       2918. kBytes
   grid      :       8208. kBytes
   one-center:        294. kBytes
   wavefun   :      18763. kBytes
 
     INWAV:  cpu time    0.0000: real time    0.0000
 Broyden mixing: mesh for mixing (old mesh)
   NGX = 25   NGY = 25   NGZ = 33
  (NGX  =100   NGY  =100   NGZ  =140)
  gives a total of  20625 points

 initial charge density was supplied:
 charge density of overlapping atoms calculated
 number of electron     222.0000000 magnetization      22.0000000
 keeping initial charge density in first step


--------------------------------------------------------------------------------------------------------


 Maximum index for non-local projection operator          901
 Maximum index for augmentation-charges         1431 (set IRDMAX)


--------------------------------------------------------------------------------------------------------


 First call to EWALD:  gamma=   0.250
 Maximum number of real-space cells 3x 3x 2
 Maximum number of reciprocal cells 3x 3x 3

    FEWALD:  cpu time    0.0016: real time    0.0028


--------------------------------------- Iteration      1(   1)  ---------------------------------------


    POTLOK:  cpu time    0.0867: real time    0.0887
    SETDIJ:  cpu time    0.0156: real time    0.0157
atom =   1  type =  1  l = 0
 
 onsite density matrix
 
spin component  1
 
  1.0989
 
spin component  2
 
  1.0989
 
 occupancies and eigenvectors
 
  o =  1.0989  v =  1.0000  0.0000      0.0000  0.0000
  o =  1.0989  v =  0.0000  1.0000      0.0000  0.0000
atom =   2  type =  1  l = 0
 
 onsite density matrix
 
spin component  1
 
  1.0989
 
spin component  2
 
  1.0989
 
 occupancies and eigenvectors
 
  o =  1.0989  v =  1.0000  0.0000      0.0000  0.0000
  o =  1.0989  v =  0.0000  1.0000      0.0000  0.0000
atom =   3  type =  1  l = 0
 
 onsite density matrix
 
spin component  1
 
  1.0989
 
spin component  2
 
  1.0989
 
 occupancies and eigenvectors
 
  o =  1.0989  v =  1.0000  0.0000      0.0000  0.0000
  o =  1.0989  v =  0.0000  1.0000      0.0000  0.0000
atom =   4  type =  1  l = 0
 
 onsite density matrix
 
spin component  1
 
  1.0989
 
spin component  2
 
  1.0989
 
 occupancies and eigenvectors
 
  o =  1.0989  v =  1.0000  0.0000      0.0000  0.0000
  o =  1.0989  v =  0.0000  1.0000      0.0000  0.0000
atom =   5  type =  1  l = 0
 
 onsite density matrix
 
spin component  1
 
  1.0989
 
spin component  2
 
  1.0989
 
 occupancies and eigenvectors
 
  o =  1.0989  v =  1.0000  0.0000      0.0000  0.0000
  o =  1.0989  v =  0.0000  1.0000      0.0000  0.0000
atom =   6  type =  1  l = 0
 
 onsite density matrix
 
spin component  1
 
  1.0989
 
spin component  2
 
  1.0989
 
 occupancies and eigenvectors
 
  o =  1.0989  v =  1.0000  0.0000      0.0000  0.0000
  o =  1.0989  v =  0.0000  1.0000      0.0000  0.0000
atom =   7  type =  2  l = 2
 
 onsite density matrix
 
spin component  1
 
  0.8272  0.0000  0.0000  0.0000  0.0000
  0.0000  0.8272  0.0000  0.0000  0.0000
  0.0000  0.0000  0.8272  0.0000  0.0000
  0.0000  0.0000  0.0000  0.8272  0.0000
  0.0000  0.0000  0.0000  0.0000  0.8272
 
spin component  2
 
  0.2256  0.0000  0.0000  0.0000  0.0000
  0.0000  0.2256  0.0000  0.0000  0.0000
  0.0000  0.0000  0.2256  0.0000  0.0000
  0.0000  0.0000  0.0000  0.2256  0.0000
  0.0000  0.0000  0.0000  0.0000  0.2256
 
 occupancies and eigenvectors
 
  o =  0.2256  v =  0.0000  0.0000  0.0000  0.0000  0.0000  0.0000  0.0000  1.0000  0.0000  0.0000      0.0000  0.0000  0.0000  0.0000  0.0000  0.0000  0.0000  0.0000  0.0000  0.0000
  o =  0.2256  v =  0.0000  0.0000  0.0000  0.0000  0.0000  1.0000  0.0000  0.0000  0.0000  0.0000      0.0000  0.0000  0.0000  0.0000  0.0000  0.0000  0.0000  0.0000  0.0000  0.0000
  o =  0.2256  v =  0.0000  0.0000  0.0000  0.0000  0.0000  0.0000  1.0000  0.0000  0.0000  0.0000      0.0000  0.0000  0.0000  0.0000  0.0000  0.0000  0.0000  0.0000  0.0000  0.0000
  o =  0.2256  v =  0.0000  0.0000  0.0000  0.0000  0.0000  0.0000  0.0000  0.0000  1.0000  0.0000      0.0000  0.0000  0.0000  0.0000  0.0000  0.0000  0.0000  0.0000  0.0000  0.0000
  o =  0.2256  v =  0.0000  0.0000  0.0000  0.0000  0.0000  0.0000  0.0000  0.0000  0.0000  1.0000      0.0000  0.0000  0.0000  0.0000  0.0000  0.0000  0.0000  0.0000  0.0000  0.0000
  o =  0.8272  v =  0.0000  1.0000  0.0000  0.0000  0.0000  0.0000  0.0000  0.0000  0.0000  0.0000      0.0000  0.0000  0.0000  0.0000  0.0000  0.0000  0.0000  0.0000  0.0000  0.0000
  o =  0.8272  v =  0.0000  0.0000  1.0000  0.0000  0.0000  0.0000  0.0000  0.0000  0.0000  0.0000      0.0000  0.0000  0.0000  0.0000  0.0000  0.0000  0.0000  0.0000  0.0000  0.0000
  o =  0.8272  v =  1.0000  0.0000  0.0000  0.0000  0.0000  0.0000  0.0000  0.0000  0.0000  0.0000      0.0000  0.0000  0.0000  0.0000  0.0000  0.0000  0.0000  0.0000  0.0000  0.0000
  o =  0.8272  v =  0.0000  0.0000  0.0000  1.0000  0.0000  0.0000  0.0000  0.0000  0.0000  0.0000      0.0000  0.0000  0.0000  0.0000  0.0000  0.0000  0.0000  0.0000  0.0000  0.0000
  o =  0.8272  v =  0.0000  0.0000  0.0000  0.0000  1.0000  0.0000  0.0000  0.0000  0.0000  0.0000      0.0000  0.0000  0.0000  0.0000  0.0000  0.0000  0.0000  0.0000  0.0000  0.0000
atom =   8  type =  2  l = 2
 
 onsite density matrix
 
spin component  1
 
  0.8272  0.0000  0.0000  0.0000  0.0000
  0.0000  0.8272  0.0000  0.0000  0.0000
  0.0000  0.0000  0.8272  0.0000  0.0000
  0.0000  0.0000  0.0000  0.8272  0.0000
  0.0000  0.0000  0.0000  0.0000  0.8272
 
spin component  2
 
  0.2256  0.0000  0.0000  0.0000  0.0000
  0.0000  0.2256  0.0000  0.0000  0.0000
  0.0000  0.0000  0.2256  0.0000  0.0000
  0.0000  0.0000  0.0000  0.2256  0.0000
  0.0000  0.0000  0.0000  0.0000  0.2256
 
 occupancies and eigenvectors
 
  o =  0.2256  v =  0.0000  0.0000  0.0000  0.0000  0.0000  0.0000  0.0000  1.0000  0.0000  0.0000      0.0000  0.0000  0.0000  0.0000  0.0000  0.0000  0.0000  0.0000  0.0000  0.0000
  o =  0.2256  v =  0.0000  0.0000  0.0000  0.0000  0.0000  1.0000  0.0000  0.0000  0.0000  0.0000      0.0000  0.0000  0.0000  0.0000  0.0000  0.0000  0.0000  0.0000  0.0000  0.0000
  o =  0.2256  v =  0.0000  0.0000  0.0000  0.0000  0.0000  0.0000  1.0000  0.0000  0.0000  0.0000      0.0000  0.0000  0.0000  0.0000  0.0000  0.0000  0.0000  0.0000  0.0000  0.0000
  o =  0.2256  v =  0.0000  0.0000  0.0000  0.0000  0.0000  0.0000  0.0000  0.0000  1.0000  0.0000      0.0000  0.0000  0.0000  0.0000  0.0000  0.0000  0.0000  0.0000  0.0000  0.0000
  o =  0.2256  v =  0.0000  0.0000  0.0000  0.0000  0.0000  0.0000  0.0000  0.0000  0.0000  1.0000      0.0000  0.0000  0.0000  0.0000  0.0000  0.0000  0.0000  0.0000  0.0000  0.0000
  o =  0.8272  v =  0.0000  1.0000  0.0000  0.0000  0.0000  0.0000  0.0000  0.0000  0.0000  0.0000      0.0000  0.0000  0.0000  0.0000  0.0000  0.0000  0.0000  0.0000  0.0000  0.0000
  o =  0.8272  v =  0.0000  0.0000  1.0000  0.0000  0.0000  0.0000  0.0000  0.0000  0.0000  0.0000      0.0000  0.0000  0.0000  0.0000  0.0000  0.0000  0.0000  0.0000  0.0000  0.0000
  o =  0.8272  v =  1.0000  0.0000  0.0000  0.0000  0.0000  0.0000  0.0000  0.0000  0.0000  0.0000      0.0000  0.0000  0.0000  0.0000  0.0000  0.0000  0.0000  0.0000  0.0000  0.0000
  o =  0.8272  v =  0.0000  0.0000  0.0000  1.0000  0.0000  0.0000  0.0000  0.0000  0.0000  0.0000      0.0000  0.0000  0.0000  0.0000  0.0000  0.0000  0.0000  0.0000  0.0000  0.0000
  o =  0.8272  v =  0.0000  0.0000  0.0000  0.0000  1.0000  0.0000  0.0000  0.0000  0.0000  0.0000      0.0000  0.0000  0.0000  0.0000  0.0000  0.0000  0.0000  0.0000  0.0000  0.0000
atom =   9  type =  2  l = 2
 
 onsite density matrix
 
spin component  1
 
  0.8272  0.0000  0.0000  0.0000  0.0000
  0.0000  0.8272  0.0000  0.0000  0.0000
  0.0000  0.0000  0.8272  0.0000  0.0000
  0.0000  0.0000  0.0000  0.8272  0.0000
  0.0000  0.0000  0.0000  0.0000  0.8272
 
spin component  2
 
  0.2256  0.0000  0.0000  0.0000  0.0000
  0.0000  0.2256  0.0000  0.0000  0.0000
  0.0000  0.0000  0.2256  0.0000  0.0000
  0.0000  0.0000  0.0000  0.2256  0.0000
  0.0000  0.0000  0.0000  0.0000  0.2256
 
 occupancies and eigenvectors
 
  o =  0.2256  v =  0.0000  0.0000  0.0000  0.0000  0.0000  0.0000  0.0000  1.0000  0.0000  0.0000      0.0000  0.0000  0.0000  0.0000  0.0000  0.0000  0.0000  0.0000  0.0000  0.0000
  o =  0.2256  v =  0.0000  0.0000  0.0000  0.0000  0.0000  1.0000  0.0000  0.0000  0.0000  0.0000      0.0000  0.0000  0.0000  0.0000  0.0000  0.0000  0.0000  0.0000  0.0000  0.0000
  o =  0.2256  v =  0.0000  0.0000  0.0000  0.0000  0.0000  0.0000  1.0000  0.0000  0.0000  0.0000      0.0000  0.0000  0.0000  0.0000  0.0000  0.0000  0.0000  0.0000  0.0000  0.0000
  o =  0.2256  v =  0.0000  0.0000  0.0000  0.0000  0.0000  0.0000  0.0000  0.0000  1.0000  0.0000      0.0000  0.0000  0.0000  0.0000  0.0000  0.0000  0.0000  0.0000  0.0000  0.0000
  o =  0.2256  v =  0.0000  0.0000  0.0000  0.0000  0.0000  0.0000  0.0000  0.0000  0.0000  1.0000      0.0000  0.0000  0.0000  0.0000  0.0000  0.0000  0.0000  0.0000  0.0000  0.0000
  o =  0.8272  v =  0.0000  1.0000  0.0000  0.0000  0.0000  0.0000  0.0000  0.0000  0.0000  0.0000      0.0000  0.0000  0.0000  0.0000  0.0000  0.0000  0.0000  0.0000  0.0000  0.0000
  o =  0.8272  v =  0.0000  0.0000  1.0000  0.0000  0.0000  0.0000  0.0000  0.0000  0.0000  0.0000      0.0000  0.0000  0.0000  0.0000  0.0000  0.0000  0.0000  0.0000  0.0000  0.0000
  o =  0.8272  v =  1.0000  0.0000  0.0000  0.0000  0.0000  0.0000  0.0000  0.0000  0.0000  0.0000      0.0000  0.0000  0.0000  0.0000  0.0000  0.0000  0.0000  0.0000  0.0000  0.0000
  o =  0.8272  v =  0.0000  0.0000  0.0000  1.0000  0.0000  0.0000  0.0000  0.0000  0.0000  0.0000      0.0000  0.0000  0.0000  0.0000  0.0000  0.0000  0.0000  0.0000  0.0000  0.0000
  o =  0.8272  v =  0.0000  0.0000  0.0000  0.0000  1.0000  0.0000  0.0000  0.0000  0.0000  0.0000      0.0000  0.0000  0.0000  0.0000  0.0000  0.0000  0.0000  0.0000  0.0000  0.0000
atom =  10  type =  2  l = 2
 
 onsite density matrix
 
spin component  1
 
  0.8272  0.0000  0.0000  0.0000  0.0000
  0.0000  0.8272  0.0000  0.0000  0.0000
  0.0000  0.0000  0.8272  0.0000  0.0000
  0.0000  0.0000  0.0000  0.8272  0.0000
  0.0000  0.0000  0.0000  0.0000  0.8272
 
spin component  2
 
  0.2256  0.0000  0.0000  0.0000  0.0000
  0.0000  0.2256  0.0000  0.0000  0.0000
  0.0000  0.0000  0.2256  0.0000  0.0000
  0.0000  0.0000  0.0000  0.2256  0.0000
  0.0000  0.0000  0.0000  0.0000  0.2256
 
 occupancies and eigenvectors
 
  o =  0.2256  v =  0.0000  0.0000  0.0000  0.0000  0.0000  0.0000  0.0000  1.0000  0.0000  0.0000      0.0000  0.0000  0.0000  0.0000  0.0000  0.0000  0.0000  0.0000  0.0000  0.0000
  o =  0.2256  v =  0.0000  0.0000  0.0000  0.0000  0.0000  1.0000  0.0000  0.0000  0.0000  0.0000      0.0000  0.0000  0.0000  0.0000  0.0000  0.0000  0.0000  0.0000  0.0000  0.0000
  o =  0.2256  v =  0.0000  0.0000  0.0000  0.0000  0.0000  0.0000  1.0000  0.0000  0.0000  0.0000      0.0000  0.0000  0.0000  0.0000  0.0000  0.0000  0.0000  0.0000  0.0000  0.0000
  o =  0.2256  v =  0.0000  0.0000  0.0000  0.0000  0.0000  0.0000  0.0000  0.0000  1.0000  0.0000      0.0000  0.0000  0.0000  0.0000  0.0000  0.0000  0.0000  0.0000  0.0000  0.0000
  o =  0.2256  v =  0.0000  0.0000  0.0000  0.0000  0.0000  0.0000  0.0000  0.0000  0.0000  1.0000      0.0000  0.0000  0.0000  0.0000  0.0000  0.0000  0.0000  0.0000  0.0000  0.0000
  o =  0.8272  v =  0.0000  1.0000  0.0000  0.0000  0.0000  0.0000  0.0000  0.0000  0.0000  0.0000      0.0000  0.0000  0.0000  0.0000  0.0000  0.0000  0.0000  0.0000  0.0000  0.0000
  o =  0.8272  v =  0.0000  0.0000  1.0000  0.0000  0.0000  0.0000  0.0000  0.0000  0.0000  0.0000      0.0000  0.0000  0.0000  0.0000  0.0000  0.0000  0.0000  0.0000  0.0000  0.0000
  o =  0.8272  v =  1.0000  0.0000  0.0000  0.0000  0.0000  0.0000  0.0000  0.0000  0.0000  0.0000      0.0000  0.0000  0.0000  0.0000  0.0000  0.0000  0.0000  0.0000  0.0000  0.0000
  o =  0.8272  v =  0.0000  0.0000  0.0000  1.0000  0.0000  0.0000  0.0000  0.0000  0.0000  0.0000      0.0000  0.0000  0.0000  0.0000  0.0000  0.0000  0.0000  0.0000  0.0000  0.0000
  o =  0.8272  v =  0.0000  0.0000  0.0000  0.0000  1.0000  0.0000  0.0000  0.0000  0.0000  0.0000      0.0000  0.0000  0.0000  0.0000  0.0000  0.0000  0.0000  0.0000  0.0000  0.0000
atom =  11  type =  3  l = 2
 
 onsite density matrix
 
spin component  1
 
  1.1008  0.0000  0.0000  0.0000  0.0000
  0.0000  1.1008  0.0000  0.0000  0.0000
  0.0000  0.0000  1.1008  0.0000  0.0000
  0.0000  0.0000  0.0000  1.1008  0.0000
  0.0000  0.0000  0.0000  0.0000  1.1008
 
spin component  2
 
  0.5927  0.0000  0.0000  0.0000  0.0000
  0.0000  0.5927  0.0000  0.0000  0.0000
  0.0000  0.0000  0.5927  0.0000  0.0000
  0.0000  0.0000  0.0000  0.5927  0.0000
  0.0000  0.0000  0.0000  0.0000  0.5927
 
 occupancies and eigenvectors
 
  o =  0.5927  v =  0.0000  0.0000  0.0000  0.0000  0.0000  1.0000  0.0000  0.0000  0.0000  0.0000      0.0000  0.0000  0.0000  0.0000  0.0000  0.0000  0.0000  0.0000  0.0000  0.0000
  o =  0.5927  v =  0.0000  0.0000  0.0000  0.0000  0.0000  0.0000  1.0000  0.0000  0.0000  0.0000      0.0000  0.0000  0.0000  0.0000  0.0000  0.0000  0.0000  0.0000  0.0000  0.0000
  o =  0.5927  v =  0.0000  0.0000  0.0000  0.0000  0.0000  0.0000  0.0000  1.0000  0.0000  0.0000      0.0000  0.0000  0.0000  0.0000  0.0000  0.0000  0.0000  0.0000  0.0000  0.0000
  o =  0.5927  v =  0.0000  0.0000  0.0000  0.0000  0.0000  0.0000  0.0000  0.0000  1.0000  0.0000      0.0000  0.0000  0.0000  0.0000  0.0000  0.0000  0.0000  0.0000  0.0000  0.0000
  o =  0.5927  v =  0.0000  0.0000  0.0000  0.0000  0.0000  0.0000  0.0000  0.0000  0.0000  1.0000      0.0000  0.0000  0.0000  0.0000  0.0000  0.0000  0.0000  0.0000  0.0000  0.0000
  o =  1.1008  v =  1.0000  0.0000  0.0000  0.0000  0.0000  0.0000  0.0000  0.0000  0.0000  0.0000      0.0000  0.0000  0.0000  0.0000  0.0000  0.0000  0.0000  0.0000  0.0000  0.0000
  o =  1.1008  v =  0.0000  1.0000  0.0000  0.0000  0.0000  0.0000  0.0000  0.0000  0.0000  0.0000      0.0000  0.0000  0.0000  0.0000  0.0000  0.0000  0.0000  0.0000  0.0000  0.0000
  o =  1.1008  v =  0.0000  0.0000  1.0000  0.0000  0.0000  0.0000  0.0000  0.0000  0.0000  0.0000      0.0000  0.0000  0.0000  0.0000  0.0000  0.0000  0.0000  0.0000  0.0000  0.0000
  o =  1.1008  v =  0.0000  0.0000  0.0000  1.0000  0.0000  0.0000  0.0000  0.0000  0.0000  0.0000      0.0000  0.0000  0.0000  0.0000  0.0000  0.0000  0.0000  0.0000  0.0000  0.0000
  o =  1.1008  v =  0.0000  0.0000  0.0000  0.0000  1.0000  0.0000  0.0000  0.0000  0.0000  0.0000      0.0000  0.0000  0.0000  0.0000  0.0000  0.0000  0.0000  0.0000  0.0000  0.0000
atom =  12  type =  3  l = 2
 
 onsite density matrix
 
spin component  1
 
  1.1008  0.0000  0.0000  0.0000  0.0000
  0.0000  1.1008  0.0000  0.0000  0.0000
  0.0000  0.0000  1.1008  0.0000  0.0000
  0.0000  0.0000  0.0000  1.1008  0.0000
  0.0000  0.0000  0.0000  0.0000  1.1008
 
spin component  2
 
  0.5927  0.0000  0.0000  0.0000  0.0000
  0.0000  0.5927  0.0000  0.0000  0.0000
  0.0000  0.0000  0.5927  0.0000  0.0000
  0.0000  0.0000  0.0000  0.5927  0.0000
  0.0000  0.0000  0.0000  0.0000  0.5927
 
 occupancies and eigenvectors
 
  o =  0.5927  v =  0.0000  0.0000  0.0000  0.0000  0.0000  1.0000  0.0000  0.0000  0.0000  0.0000      0.0000  0.0000  0.0000  0.0000  0.0000  0.0000  0.0000  0.0000  0.0000  0.0000
  o =  0.5927  v =  0.0000  0.0000  0.0000  0.0000  0.0000  0.0000  1.0000  0.0000  0.0000  0.0000      0.0000  0.0000  0.0000  0.0000  0.0000  0.0000  0.0000  0.0000  0.0000  0.0000
  o =  0.5927  v =  0.0000  0.0000  0.0000  0.0000  0.0000  0.0000  0.0000  1.0000  0.0000  0.0000      0.0000  0.0000  0.0000  0.0000  0.0000  0.0000  0.0000  0.0000  0.0000  0.0000
  o =  0.5927  v =  0.0000  0.0000  0.0000  0.0000  0.0000  0.0000  0.0000  0.0000  1.0000  0.0000      0.0000  0.0000  0.0000  0.0000  0.0000  0.0000  0.0000  0.0000  0.0000  0.0000
  o =  0.5927  v =  0.0000  0.0000  0.0000  0.0000  0.0000  0.0000  0.0000  0.0000  0.0000  1.0000      0.0000  0.0000  0.0000  0.0000  0.0000  0.0000  0.0000  0.0000  0.0000  0.0000
  o =  1.1008  v =  1.0000  0.0000  0.0000  0.0000  0.0000  0.0000  0.0000  0.0000  0.0000  0.0000      0.0000  0.0000  0.0000  0.0000  0.0000  0.0000  0.0000  0.0000  0.0000  0.0000
  o =  1.1008  v =  0.0000  1.0000  0.0000  0.0000  0.0000  0.0000  0.0000  0.0000  0.0000  0.0000      0.0000  0.0000  0.0000  0.0000  0.0000  0.0000  0.0000  0.0000  0.0000  0.0000
  o =  1.1008  v =  0.0000  0.0000  1.0000  0.0000  0.0000  0.0000  0.0000  0.0000  0.0000  0.0000      0.0000  0.0000  0.0000  0.0000  0.0000  0.0000  0.0000  0.0000  0.0000  0.0000
  o =  1.1008  v =  0.0000  0.0000  0.0000  1.0000  0.0000  0.0000  0.0000  0.0000  0.0000  0.0000      0.0000  0.0000  0.0000  0.0000  0.0000  0.0000  0.0000  0.0000  0.0000  0.0000
  o =  1.1008  v =  0.0000  0.0000  0.0000  0.0000  1.0000  0.0000  0.0000  0.0000  0.0000  0.0000      0.0000  0.0000  0.0000  0.0000  0.0000  0.0000  0.0000  0.0000  0.0000  0.0000
atom =  13  type =  4  l = 0
 
 onsite density matrix
 
spin component  1
 
  0.8190
 
spin component  2
 
  0.8190
 
 occupancies and eigenvectors
 
  o =  0.8190  v =  1.0000  0.0000      0.0000  0.0000
  o =  0.8190  v =  0.0000  1.0000      0.0000  0.0000
atom =  14  type =  4  l = 0
 
 onsite density matrix
 
spin component  1
 
  0.8190
 
spin component  2
 
  0.8190
 
 occupancies and eigenvectors
 
  o =  0.8190  v =  1.0000  0.0000      0.0000  0.0000
  o =  0.8190  v =  0.0000  1.0000      0.0000  0.0000
atom =  15  type =  4  l = 0
 
 onsite density matrix
 
spin component  1
 
  0.8190
 
spin component  2
 
  0.8190
 
 occupancies and eigenvectors
 
  o =  0.8190  v =  1.0000  0.0000      0.0000  0.0000
  o =  0.8190  v =  0.0000  1.0000      0.0000  0.0000
atom =  16  type =  4  l = 0
 
 onsite density matrix
 
spin component  1
 
  0.8190
 
spin component  2
 
  0.8190
 
 occupancies and eigenvectors
 
  o =  0.8190  v =  1.0000  0.0000      0.0000  0.0000
  o =  0.8190  v =  0.0000  1.0000      0.0000  0.0000
atom =  17  type =  4  l = 0
 
 onsite density matrix
 
spin component  1
 
  0.8190
 
spin component  2
 
  0.8190
 
 occupancies and eigenvectors
 
  o =  0.8190  v =  1.0000  0.0000      0.0000  0.0000
  o =  0.8190  v =  0.0000  1.0000      0.0000  0.0000
atom =  18  type =  4  l = 0
 
 onsite density matrix
 
spin component  1
 
  0.8190
 
spin component  2
 
  0.8190
 
 occupancies and eigenvectors
 
  o =  0.8190  v =  1.0000  0.0000      0.0000  0.0000
  o =  0.8190  v =  0.0000  1.0000      0.0000  0.0000
atom =  19  type =  4  l = 0
 
 onsite density matrix
 
spin component  1
 
  0.8190
 
spin component  2
 
  0.8190
 
 occupancies and eigenvectors
 
  o =  0.8190  v =  1.0000  0.0000      0.0000  0.0000
  o =  0.8190  v =  0.0000  1.0000      0.0000  0.0000
atom =  20  type =  4  l = 0
 
 onsite density matrix
 
spin component  1
 
  0.8190
 
spin component  2
 
  0.8190
 
 occupancies and eigenvectors
 
  o =  0.8190  v =  1.0000  0.0000      0.0000  0.0000
  o =  0.8190  v =  0.0000  1.0000      0.0000  0.0000
atom =  21  type =  4  l = 0
 
 onsite density matrix
 
spin component  1
 
  0.8190
 
spin component  2
 
  0.8190
 
 occupancies and eigenvectors
 
  o =  0.8190  v =  1.0000  0.0000      0.0000  0.0000
  o =  0.8190  v =  0.0000  1.0000      0.0000  0.0000
atom =  22  type =  4  l = 0
 
 onsite density matrix
 
spin component  1
 
  0.8190
 
spin component  2
 
  0.8190
 
 occupancies and eigenvectors
 
  o =  0.8190  v =  1.0000  0.0000      0.0000  0.0000
  o =  0.8190  v =  0.0000  1.0000      0.0000  0.0000
atom =  23  type =  4  l = 0
 
 onsite density matrix
 
spin component  1
 
  0.8190
 
spin component  2
 
  0.8190
 
 occupancies and eigenvectors
 
  o =  0.8190  v =  1.0000  0.0000      0.0000  0.0000
  o =  0.8190  v =  0.0000  1.0000      0.0000  0.0000
atom =  24  type =  4  l = 0
 
 onsite density matrix
 
spin component  1
 
  0.8190
 
spin component  2
 
  0.8190
 
 occupancies and eigenvectors
 
  o =  0.8190  v =  1.0000  0.0000      0.0000  0.0000
  o =  0.8190  v =  0.0000  1.0000      0.0000  0.0000
atom =  25  type =  4  l = 0
 
 onsite density matrix
 
spin component  1
 
  0.8190
 
spin component  2
 
  0.8190
 
 occupancies and eigenvectors
 
  o =  0.8190  v =  1.0000  0.0000      0.0000  0.0000
  o =  0.8190  v =  0.0000  1.0000      0.0000  0.0000
atom =  26  type =  4  l = 0
 
 onsite density matrix
 
spin component  1
 
  0.8190
 
spin component  2
 
  0.8190
 
 occupancies and eigenvectors
 
  o =  0.8190  v =  1.0000  0.0000      0.0000  0.0000
  o =  0.8190  v =  0.0000  1.0000      0.0000  0.0000
atom =  27  type =  4  l = 0
 
 onsite density matrix
 
spin component  1
 
  0.8190
 
spin component  2
 
  0.8190
 
 occupancies and eigenvectors
 
  o =  0.8190  v =  1.0000  0.0000      0.0000  0.0000
  o =  0.8190  v =  0.0000  1.0000      0.0000  0.0000
atom =  28  type =  4  l = 0
 
 onsite density matrix
 
spin component  1
 
  0.8190
 
spin component  2
 
  0.8190
 
 occupancies and eigenvectors
 
  o =  0.8190  v =  1.0000  0.0000      0.0000  0.0000
  o =  0.8190  v =  0.0000  1.0000      0.0000  0.0000
atom =  29  type =  4  l = 0
 
 onsite density matrix
 
spin component  1
 
  0.8190
 
spin component  2
 
  0.8190
 
 occupancies and eigenvectors
 
  o =  0.8190  v =  1.0000  0.0000      0.0000  0.0000
  o =  0.8190  v =  0.0000  1.0000      0.0000  0.0000
atom =  30  type =  4  l = 0
 
 onsite density matrix
 
spin component  1
 
  0.8190
 
spin component  2
 
  0.8190
 
 occupancies and eigenvectors
 
  o =  0.8190  v =  1.0000  0.0000      0.0000  0.0000
  o =  0.8190  v =  0.0000  1.0000      0.0000  0.0000
     EDDAV:  cpu time    2.9413: real time    2.9526
 BZINTS: Fermi energy: 31.477317;222.000000 electrons
         Band energy:3323.481230;  BLOECHL correction: -0.119535
       DOS:  cpu time    0.0107: real time    0.0109
    --------------------------------------------
      LOOP:  cpu time    3.0543: real time    3.0680

 eigenvalue-minimisations  :  4968
 total energy-change (2. order) : 0.3570017E+04  (-0.7734490E+04)
 number of electron     222.0000000 magnetization      22.0000000
 augmentation part      222.0000000 magnetization      22.0000000

 Free energy of the ion-electron system (eV)
  ---------------------------------------------------
  alpha Z        PSCENC =       975.54770296
  Ewald energy   TEWEN  =    -15069.37563726
  -Hartree energ DENC   =     -3145.51868591
  -exchange      EXHF   =         0.00000000
  -V(xc)+E(xc)   XCENC  =       710.61003698
  PAW double counting   =     13644.53670636   -13669.90867429
  entropy T*S    EENTRO =         0.00000000
  eigenvalues    EBANDS =      3323.48122983
  atomic energy  EATOM  =     16800.64461370
  Solvation  Ediel_sol  =         0.00000000
  ---------------------------------------------------
  free energy    TOTEN  =      3570.01729236 eV

  energy without entropy =     3570.01729236  energy(sigma->0) =     3570.01729236


--------------------------------------------------------------------------------------------------------




--------------------------------------- Iteration      1(   2)  ---------------------------------------


     EDDAV:  cpu time    3.0275: real time    3.0381
 BZINTS: Fermi energy: 16.417909;222.000000 electrons
         Band energy: 996.075536;  BLOECHL correction: -0.029771
       DOS:  cpu time    0.0115: real time    0.0115
    --------------------------------------------
      LOOP:  cpu time    3.0389: real time    3.0496

 eigenvalue-minimisations  :  5136
 total energy-change (2. order) :-0.2327406E+04  (-0.2093572E+04)
 number of electron     222.0000000 magnetization      22.0000000
 augmentation part      222.0000000 magnetization      22.0000000

 Free energy of the ion-electron system (eV)
  ---------------------------------------------------
  alpha Z        PSCENC =       975.54770296
  Ewald energy   TEWEN  =    -15069.37563726
  -Hartree energ DENC   =     -3145.51868591
  -exchange      EXHF   =         0.00000000
  -V(xc)+E(xc)   XCENC  =       710.61003698
  PAW double counting   =     13644.53670636   -13669.90867429
  entropy T*S    EENTRO =         0.00000000
  eigenvalues    EBANDS =       996.07553552
  atomic energy  EATOM  =     16800.64461370
  Solvation  Ediel_sol  =         0.00000000
  ---------------------------------------------------
  free energy    TOTEN  =      1242.61159805 eV

  energy without entropy =     1242.61159805  energy(sigma->0) =     1242.61159805


--------------------------------------------------------------------------------------------------------




--------------------------------------- Iteration      1(   3)  ---------------------------------------


     EDDAV:  cpu time    3.0228: real time    3.0339
 BZINTS: Fermi energy: 12.087244;222.000000 electrons
         Band energy:  28.371589;  BLOECHL correction: -0.047380
       DOS:  cpu time    0.0117: real time    0.0117
    --------------------------------------------
      LOOP:  cpu time    3.0345: real time    3.0456

 eigenvalue-minimisations  :  5216
 total energy-change (2. order) :-0.9677039E+03  (-0.8717225E+03)
 number of electron     222.0000000 magnetization      22.0000000
 augmentation part      222.0000000 magnetization      22.0000000

 Free energy of the ion-electron system (eV)
  ---------------------------------------------------
  alpha Z        PSCENC =       975.54770296
  Ewald energy   TEWEN  =    -15069.37563726
  -Hartree energ DENC   =     -3145.51868591
  -exchange      EXHF   =         0.00000000
  -V(xc)+E(xc)   XCENC  =       710.61003698
  PAW double counting   =     13644.53670636   -13669.90867429
  entropy T*S    EENTRO =         0.00000000
  eigenvalues    EBANDS =        28.37158915
  atomic energy  EATOM  =     16800.64461370
  Solvation  Ediel_sol  =         0.00000000
  ---------------------------------------------------
  free energy    TOTEN  =       274.90765168 eV

  energy without entropy =      274.90765168  energy(sigma->0) =      274.90765168


--------------------------------------------------------------------------------------------------------




--------------------------------------- Iteration      1(   4)  ---------------------------------------


     EDDAV:  cpu time    4.0539: real time    4.0695
 BZINTS: Fermi energy: 11.368504;222.000000 electrons
         Band energy:-406.373266;  BLOECHL correction: -0.006855
       DOS:  cpu time    0.0120: real time    0.0120
    --------------------------------------------
      LOOP:  cpu time    4.0659: real time    4.0815

 eigenvalue-minimisations  :  7440
 total energy-change (2. order) :-0.4347449E+03  (-0.4098069E+03)
 number of electron     222.0000000 magnetization      22.0000000
 augmentation part      222.0000000 magnetization      22.0000000

 Free energy of the ion-electron system (eV)
  ---------------------------------------------------
  alpha Z        PSCENC =       975.54770296
  Ewald energy   TEWEN  =    -15069.37563726
  -Hartree energ DENC   =     -3145.51868591
  -exchange      EXHF   =         0.00000000
  -V(xc)+E(xc)   XCENC  =       710.61003698
  PAW double counting   =     13644.53670636   -13669.90867429
  entropy T*S    EENTRO =         0.00000000
  eigenvalues    EBANDS =      -406.37326649
  atomic energy  EATOM  =     16800.64461370
  Solvation  Ediel_sol  =         0.00000000
  ---------------------------------------------------
  free energy    TOTEN  =      -159.83720395 eV

  energy without entropy =     -159.83720395  energy(sigma->0) =     -159.83720395


--------------------------------------------------------------------------------------------------------




--------------------------------------- Iteration      1(   5)  ---------------------------------------


     EDDAV:  cpu time    4.5084: real time    4.5250
 BZINTS: Fermi energy: 11.009440;222.000000 electrons
         Band energy:-501.120206;  BLOECHL correction: -0.052955
       DOS:  cpu time    0.0109: real time    0.0109
    CHARGE:  cpu time    0.1490: real time    0.1502
    MIXING:  cpu time    0.0040: real time    0.0044
    --------------------------------------------
      LOOP:  cpu time    4.6723: real time    4.6905

 eigenvalue-minimisations  :  8376
 total energy-change (2. order) :-0.9474694E+02  (-0.9086612E+02)
 number of electron     222.0000013 magnetization      19.2729470
 augmentation part       26.0647486 magnetization      13.5016178

 Broyden mixing:
  rms(total) = 0.71797E+01    rms(broyden)= 0.71791E+01
  rms(prec ) = 0.88074E+01
  weight for this iteration     100.00

 Free energy of the ion-electron system (eV)
  ---------------------------------------------------
  alpha Z        PSCENC =       975.54770296
  Ewald energy   TEWEN  =    -15069.37563726
  -Hartree energ DENC   =     -3145.51868591
  -exchange      EXHF   =         0.00000000
  -V(xc)+E(xc)   XCENC  =       710.61003698
  PAW double counting   =     13644.53670636   -13669.90867429
  entropy T*S    EENTRO =         0.00000000
  eigenvalues    EBANDS =      -501.12020585
  atomic energy  EATOM  =     16800.64461370
  Solvation  Ediel_sol  =         0.00000000
  ---------------------------------------------------
  free energy    TOTEN  =      -254.58414332 eV

  energy without entropy =     -254.58414332  energy(sigma->0) =     -254.58414332


--------------------------------------------------------------------------------------------------------




--------------------------------------- Iteration      1(   6)  ---------------------------------------


    POTLOK:  cpu time    0.0842: real time    0.0866
    SETDIJ:  cpu time    0.0136: real time    0.0136
atom =   1  type =  1  l = 0
 
 onsite density matrix
 
spin component  1
 
  1.0559
 
spin component  2
 
  1.0560
 
 occupancies and eigenvectors
 
  o =  1.0559  v =  1.0000  0.0000      0.0000  0.0000
  o =  1.0560  v =  0.0000  1.0000      0.0000  0.0000
atom =   2  type =  1  l = 0
 
 onsite density matrix
 
spin component  1
 
  1.0563
 
spin component  2
 
  1.0564
 
 occupancies and eigenvectors
 
  o =  1.0563  v =  1.0000  0.0000      0.0000  0.0000
  o =  1.0564  v =  0.0000  1.0000      0.0000  0.0000
atom =   3  type =  1  l = 0
 
 onsite density matrix
 
spin component  1
 
  1.0563
 
spin component  2
 
  1.0564
 
 occupancies and eigenvectors
 
  o =  1.0563  v =  1.0000  0.0000      0.0000  0.0000
  o =  1.0564  v =  0.0000  1.0000      0.0000  0.0000
atom =   4  type =  1  l = 0
 
 onsite density matrix
 
spin component  1
 
  1.0559
 
spin component  2
 
  1.0560
 
 occupancies and eigenvectors
 
  o =  1.0559  v =  1.0000  0.0000      0.0000  0.0000
  o =  1.0560  v =  0.0000  1.0000      0.0000  0.0000
atom =   5  type =  1  l = 0
 
 onsite density matrix
 
spin component  1
 
  1.0563
 
spin component  2
 
  1.0564
 
 occupancies and eigenvectors
 
  o =  1.0563  v =  1.0000  0.0000      0.0000  0.0000
  o =  1.0564  v =  0.0000  1.0000      0.0000  0.0000
atom =   6  type =  1  l = 0
 
 onsite density matrix
 
spin component  1
 
  1.0563
 
spin component  2
 
  1.0564
 
 occupancies and eigenvectors
 
  o =  1.0563  v =  1.0000  0.0000      0.0000  0.0000
  o =  1.0564  v =  0.0000  1.0000      0.0000  0.0000
atom =   7  type =  2  l = 2
 
 onsite density matrix
 
spin component  1
 
  0.9281 -0.0155  0.0000  0.0000  0.0000
 -0.0155  0.9422  0.0000  0.0000  0.0000
  0.0000  0.0000  0.4127  0.0027  0.0372
  0.0000  0.0000  0.0027  0.9399 -0.0029
  0.0000  0.0000  0.0372 -0.0029  0.3923
 
spin component  2
 
  0.0485  0.0100  0.0000  0.0000  0.0000
  0.0100  0.0339  0.0000  0.0000  0.0000
  0.0000  0.0000  0.3999 -0.0012 -0.0271
  0.0000  0.0000 -0.0012  0.0430  0.0026
  0.0000  0.0000 -0.0271  0.0026  0.4199
 
 occupancies and eigenvectors
 
  o =  0.0288  v =  0.0000  0.0000  0.0000  0.0000  0.0000  0.4529 -0.8915  0.0000  0.0000  0.0000      0.0000  0.0000  0.0000  0.0000  0.0000  0.0000  0.0000  0.0000  0.0000  0.0000
  o =  0.0430  v =  0.0000  0.0000  0.0000  0.0000  0.0000  0.0000  0.0000 -0.0027 -1.0000  0.0067      0.0000  0.0000  0.0000  0.0000  0.0000  0.0000  0.0000  0.0000  0.0000  0.0000
  o =  0.0535  v =  0.0000  0.0000  0.0000  0.0000  0.0000 -0.8915 -0.4529  0.0000  0.0000  0.0000      0.0000  0.0000  0.0000  0.0000  0.0000  0.0000  0.0000  0.0000  0.0000  0.0000
  o =  0.3639  v =  0.0000  0.0000 -0.6063  0.0068  0.7952  0.0000  0.0000  0.0000  0.0000  0.0000      0.0000  0.0000  0.0000  0.0000  0.0000  0.0000  0.0000  0.0000  0.0000  0.0000
  o =  0.3810  v =  0.0000  0.0000  0.0000  0.0000  0.0000  0.0000  0.0000 -0.8206 -0.0016 -0.5716      0.0000  0.0000  0.0000  0.0000  0.0000  0.0000  0.0000  0.0000  0.0000  0.0000
  o =  0.4389  v =  0.0000  0.0000  0.0000  0.0000  0.0000  0.0000  0.0000  0.5716 -0.0070 -0.8205      0.0000  0.0000  0.0000  0.0000  0.0000  0.0000  0.0000  0.0000  0.0000  0.0000
  o =  0.4411  v =  0.0000  0.0000  0.7952 -0.0008  0.6063  0.0000  0.0000  0.0000  0.0000  0.0000      0.0000  0.0000  0.0000  0.0000  0.0000  0.0000  0.0000  0.0000  0.0000  0.0000
  o =  0.9181  v = -0.8413 -0.5405  0.0000  0.0000  0.0000  0.0000  0.0000  0.0000  0.0000  0.0000      0.0000  0.0000  0.0000  0.0000  0.0000  0.0000  0.0000  0.0000  0.0000  0.0000
  o =  0.9399  v =  0.0000  0.0000 -0.0047 -1.0000  0.0049  0.0000  0.0000  0.0000  0.0000  0.0000      0.0000  0.0000  0.0000  0.0000  0.0000  0.0000  0.0000  0.0000  0.0000  0.0000
  o =  0.9522  v = -0.5405  0.8413  0.0000  0.0000  0.0000  0.0000  0.0000  0.0000  0.0000  0.0000      0.0000  0.0000  0.0000  0.0000  0.0000  0.0000  0.0000  0.0000  0.0000  0.0000
atom =   8  type =  2  l = 2
 
 onsite density matrix
 
spin component  1
 
  0.9425  0.0104 -0.0000  0.0000  0.0000
  0.0104  0.9259 -0.0000  0.0000 -0.0000
 -0.0000 -0.0000  0.3917 -0.0024 -0.0473
  0.0000  0.0000 -0.0024  0.9351  0.0030
  0.0000 -0.0000 -0.0473  0.0030  0.4092
 
spin component  2
 
  0.0412 -0.0056  0.0000 -0.0000  0.0000
 -0.0056  0.0544  0.0000 -0.0000  0.0000
  0.0000  0.0000  0.4250  0.0012  0.0323
 -0.0000 -0.0000  0.0012  0.0448 -0.0017
  0.0000  0.0000  0.0323 -0.0017  0.4122
 
 occupancies and eigenvectors
 
  o =  0.0391  v =  0.0000  0.0000  0.0000  0.0000  0.0000 -0.9386 -0.3451  0.0000 -0.0000  0.0000      0.0000  0.0000  0.0000  0.0000  0.0000  0.0000  0.0000  0.0000  0.0000  0.0000
  o =  0.0448  v =  0.0000  0.0000  0.0000  0.0000  0.0000  0.0000 -0.0000 -0.0035  1.0000  0.0048      0.0000  0.0000  0.0000  0.0000  0.0000  0.0000  0.0000  0.0000  0.0000  0.0000
  o =  0.0564  v =  0.0000  0.0000  0.0000  0.0000  0.0000  0.3451 -0.9386  0.0000 -0.0000  0.0000      0.0000  0.0000  0.0000  0.0000  0.0000  0.0000  0.0000  0.0000  0.0000  0.0000
  o =  0.3524  v =  0.0000 -0.0000 -0.7687  0.0002 -0.6396  0.0000  0.0000  0.0000  0.0000  0.0000      0.0000  0.0000  0.0000  0.0000  0.0000  0.0000  0.0000  0.0000  0.0000  0.0000
  o =  0.3856  v =  0.0000  0.0000  0.0000  0.0000  0.0000  0.0000 -0.0000 -0.6346 -0.0059  0.7728      0.0000  0.0000  0.0000  0.0000  0.0000  0.0000  0.0000  0.0000  0.0000  0.0000
  o =  0.4485  v =  0.0000  0.0000  0.6396  0.0079 -0.7687  0.0000  0.0000  0.0000  0.0000  0.0000      0.0000  0.0000  0.0000  0.0000  0.0000  0.0000  0.0000  0.0000  0.0000  0.0000
  o =  0.4516  v =  0.0000  0.0000  0.0000  0.0000  0.0000  0.0000 -0.0000 -0.7728  0.0004 -0.6346      0.0000  0.0000  0.0000  0.0000  0.0000  0.0000  0.0000  0.0000  0.0000  0.0000
[...]
  0.000   0.000  -0.000  -0.000  -0.000  -0.000  -0.001  -0.000   0.000   0.000   0.000   0.000   0.000   0.000   0.000   0.000
  0.000   0.000  -0.000  -0.000   0.000  -0.000   0.000   0.000   0.000   0.000   0.000   0.000   0.000   0.000   0.000   0.000
  0.000   0.000  -0.000  -0.000  -0.000   0.000   0.000  -0.000   0.000   0.000   0.000   0.000   0.000   0.000   0.000   0.000
  0.000   0.000   0.000  -0.000  -0.000   0.000  -0.000  -0.001   0.000   0.000   0.000   0.000   0.000   0.000   0.000   0.000
  0.000   0.000   0.000   0.000   0.000  -0.001  -0.000   0.000   0.000   0.000   0.000   0.000   0.000   0.000   0.000   0.000
  0.000   0.000   0.000  -0.000   0.001  -0.001   0.001  -0.001   0.000   0.000   0.000   0.000   0.000   0.000   0.000   0.000
  0.000   0.000   0.000  -0.000   0.000  -0.001  -0.000   0.000   0.000   0.000   0.000   0.000   0.000   0.000   0.000   0.000
  0.000   0.000  -0.000  -0.000  -0.000   0.000   0.001   0.000   0.000   0.000   0.000   0.000   0.000   0.000   0.000   0.000
  0.000   0.000   0.000   0.000   0.000   0.000  -0.000  -0.001   0.000   0.000   0.000   0.000   0.000   0.000   0.000   0.000
  0.000   0.000   0.000   0.000   0.000  -0.000  -0.000   0.000   0.000   0.000   0.000   0.000   0.000   0.000   0.000   0.000
  0.000   0.000   0.000   0.000  -0.000  -0.000   0.000   0.001   0.000   0.000   0.000   0.000   0.000   0.000   0.000   0.000


------------------------ aborting loop because EDIFF is reached ----------------------------------------


 


 total charge     
 
# of ion       s       p       d       f       tot
--------------------------------------------------
    1        1.999   5.698   0.482   0.188   8.366
    2        1.999   5.696   0.484   0.187   8.366
    3        1.999   5.697   0.482   0.187   8.365
    4        1.999   5.698   0.482   0.188   8.366
    5        1.998   5.697   0.482   0.187   8.365
    6        1.999   5.696   0.484   0.187   8.367
    7        0.318   0.488   4.878   0.000   5.684
    8        0.343   0.536   4.878   0.000   5.758
    9        0.343   0.536   4.878   0.000   5.758
   10        0.343   0.535   4.873   0.000   5.751
   11        0.381   0.544   8.316   0.000   9.241
   12        0.381   0.544   8.315   0.000   9.241
   13        1.563   3.462   0.000   0.000   5.025
   14        1.563   3.462   0.000   0.000   5.025
   15        1.560   3.459   0.000   0.000   5.019
   16        1.560   3.458   0.000   0.000   5.018
   17        1.560   3.458   0.000   0.000   5.018
   18        1.560   3.459   0.000   0.000   5.019
   19        1.560   3.460   0.000   0.000   5.019
   20        1.564   3.461   0.000   0.000   5.025
   21        1.560   3.460   0.000   0.000   5.020
   22        1.560   3.460   0.000   0.000   5.020
   23        1.564   3.461   0.000   0.000   5.025
   24        1.560   3.460   0.000   0.000   5.019
   25        1.567   3.455   0.000   0.000   5.023
   26        1.559   3.455   0.000   0.000   5.014
   27        1.566   3.460   0.000   0.000   5.026
   28        1.554   3.454   0.000   0.000   5.008
   29        1.566   3.460   0.000   0.000   5.026
   30        1.559   3.455   0.000   0.000   5.014
--------------------------------------------------
tot         42.208  99.621  39.035   1.124 181.988

 


 magnetization (x)
 
# of ion       s       p       d       f       tot
--------------------------------------------------
    1        0.001   0.001   0.011   0.005   0.018
    2        0.000   0.001   0.006   0.005   0.013
    3        0.001   0.001   0.010   0.004   0.015
    4        0.001   0.001   0.010   0.005   0.017
    5        0.001   0.001   0.010   0.004   0.015
    6        0.000   0.001   0.006   0.005   0.013
    7        0.021   0.027   3.651   0.000   3.699
    8        0.027   0.033   3.480   0.000   3.540
    9        0.027   0.033   3.480   0.000   3.540
   10        0.026   0.031   3.472   0.000   3.528
   11        0.006  -0.002   1.709   0.000   1.713
   12        0.006  -0.002   1.709   0.000   1.713
   13        0.004  -0.025   0.000   0.000  -0.020
   14        0.004  -0.025   0.000   0.000  -0.020
   15        0.005  -0.006   0.000   0.000  -0.001
   16        0.005  -0.004   0.000   0.000   0.000
   17        0.005  -0.004   0.000   0.000   0.000
   18        0.005  -0.006   0.000   0.000  -0.001
   19        0.005  -0.005   0.000   0.000   0.000
   20        0.005  -0.029   0.000   0.000  -0.024
   21        0.005  -0.003   0.000   0.000   0.002
   22        0.005  -0.003   0.000   0.000   0.002
   23        0.005  -0.029   0.000   0.000  -0.024
   24        0.005  -0.005   0.000   0.000   0.000
   25        0.008  -0.051   0.000   0.000  -0.043
   26        0.004  -0.011   0.000   0.000  -0.007
   27        0.007  -0.039   0.000   0.000  -0.033
   28        0.006   0.035   0.000   0.000   0.041
   29        0.007  -0.039   0.000   0.000  -0.033
   30        0.004  -0.011   0.000   0.000  -0.008
--------------------------------------------------
tot          0.208  -0.137  17.555   0.028  17.653

 
    CHARGE:  cpu time    0.1507: real time    0.1513
    FORLOC:  cpu time    0.0168: real time    0.0168
    FORNL :  cpu time    0.8343: real time    0.8368
    STRESS:  cpu time    2.5215: real time    2.5297
    FORCOR:  cpu time    0.0956: real time    0.0960
    FORHAR:  cpu time    0.0205: real time    0.0206
    MIXING:  cpu time    0.0056: real time    0.0056
    OFIELD:  cpu time    0.0001: real time    0.0002

  FORCE on cell =-STRESS in cart. coord.  units (eV):
  Direction    XX          YY          ZZ          XY          YZ          ZX
  --------------------------------------------------------------------------------------
  Alpha Z   975.54770   975.54770   975.54770
  Ewald   -5026.31204 -5015.54592 -5027.57175    -0.00000     0.00000    -0.80684
  Hartree  1082.07037  1081.08728  1074.54247    -0.00000    -0.00000     0.45603
  E(xc)   -1025.77526 -1025.83784 -1025.82505    -0.00000    -0.00000    -0.01379
  Local    -588.61619  -596.65757  -579.15204    -0.00000    -0.00000     0.40461
  n-local   403.55177   402.91991   402.65639     0.54455     0.45001     0.08895
  augment   344.92174   344.16489   344.49662     0.00000     0.00000     0.04194
  Kinetic  3834.78480  3834.36790  3835.11204    -0.90879    -0.65272    -0.21609
  Fock        0.00000     0.00000     0.00000     0.00000     0.00000     0.00000
  -------------------------------------------------------------------------------------
  Total       0.17289     0.04634    -0.19361     0.00000     0.00000    -0.04519
  in kB       0.77896     0.20879    -0.87230     0.00000     0.00000    -0.20359
  external pressure =        0.04 kB  Pullay stress =        0.00 kB


 VOLUME and BASIS-vectors are now :
 -----------------------------------------------------------------------------
  energy-cutoff  :      520.00
  volume of cell :      355.61
      direct lattice vectors                 reciprocal lattice vectors
     3.903770047 -3.894455487  3.899590754     0.085393824 -0.128387653  0.042733240
     3.903770047  3.894455487  3.899590754     0.085393824  0.128387653  0.042733240
    -3.902039869  0.000000000  7.797445440    -0.085412837  0.000000000  0.085504376

  length of vectors
     6.753740606  6.753740606  8.719293007     0.160005076  0.160005076  0.120856737


 FORCES acting on ions
    electron-ion (+dipol)            ewald-force                    non-local-force                 convergence-correction
 -----------------------------------------------------------------------------------------------
   -.430E-03 0.368E-05 0.169E-03   -.168E-03 -.117E-04 0.154E-03   0.000E+00 0.000E+00 0.434E-18   0.482E-05 0.795E-06 -.693E-05
   -.315E+02 0.345E+02 0.388E+02   0.312E+02 -.341E+02 -.383E+02   0.284E+00 -.406E+00 -.435E+00   0.266E-01 -.473E-02 -.259E-01
   0.315E+02 0.345E+02 -.388E+02   -.312E+02 -.341E+02 0.383E+02   -.284E+00 -.406E+00 0.435E+00   -.266E-01 -.474E-02 0.259E-01
   -.424E-03 0.233E-05 0.172E-03   -.168E-03 0.117E-04 0.154E-03   0.000E+00 -.108E-18 -.434E-18   0.492E-05 -.793E-06 -.688E-05
   -.315E+02 -.345E+02 0.388E+02   0.312E+02 0.341E+02 -.383E+02   0.284E+00 0.406E+00 -.435E+00   0.266E-01 0.473E-02 -.259E-01
   0.315E+02 -.345E+02 -.388E+02   -.312E+02 0.341E+02 0.383E+02   -.284E+00 0.406E+00 0.435E+00   -.266E-01 0.474E-02 0.259E-01
   0.906E-04 0.381E-05 -.184E-04   -.234E-03 -.141E-13 0.521E-04   0.000E+00 -.169E-20 0.000E+00   0.381E-05 -.568E-07 -.337E-05
   -.362E+01 0.172E-05 0.170E+02   0.356E+01 -.126E-13 -.167E+02   0.370E-02 0.000E+00 -.203E+00   0.146E-01 -.265E-07 -.202E-01
   0.362E+01 0.172E-05 -.170E+02   -.356E+01 0.272E-13 0.167E+02   -.370E-02 0.000E+00 0.203E+00   -.146E-01 -.265E-07 0.202E-01
   0.634E-04 -.844E-07 -.398E-04   -.200E-03 0.179E-13 0.594E-04   0.847E-20 0.000E+00 0.136E-19   0.315E-05 0.594E-07 -.381E-05
   -.400E+02 0.708E-06 0.105E+02   0.389E+02 0.324E-14 -.103E+02   0.114E+01 0.000E+00 -.166E+00   0.181E-01 0.449E-07 -.165E-01
   0.400E+02 0.708E-06 -.105E+02   -.389E+02 -.254E-13 0.103E+02   -.114E+01 0.000E+00 0.166E+00   -.181E-01 0.449E-07 0.165E-01
   0.312E+01 -.311E-05 0.236E+02   -.371E+01 -.318E-13 -.260E+02   0.599E+00 0.000E+00 0.229E+01   0.894E-02 -.464E-07 -.163E-01
   -.312E+01 -.311E-05 -.236E+02   0.371E+01 0.210E-13 0.260E+02   -.599E+00 0.000E+00 -.229E+01   -.894E-02 -.464E-07 0.163E-01
   -.135E+02 -.888E-06 -.384E+02   0.140E+02 -.170E-13 0.337E+02   -.451E+00 0.000E+00 0.473E+01   0.321E-03 -.205E-08 0.103E-01
   -.988E+01 -.314E-05 0.433E+02   0.970E+01 0.983E-14 -.381E+02   0.171E+00 0.000E+00 -.514E+01   0.923E-02 0.453E-07 -.291E-01
   0.988E+01 -.314E-05 -.433E+02   -.970E+01 0.178E-13 0.381E+02   -.171E+00 0.000E+00 0.514E+01   -.923E-02 0.453E-07 0.291E-01
   0.135E+02 -.888E-06 0.384E+02   -.140E+02 -.298E-13 -.337E+02   0.451E+00 0.000E+00 -.473E+01   -.325E-03 -.205E-08 -.103E-01
   -.132E+02 -.374E+02 0.109E+02   0.134E+02 0.322E+02 -.110E+02   -.181E+00 0.521E+01 0.173E+00   0.110E-01 0.100E-01 -.129E-01
   -.449E-03 -.171E+02 0.214E-03   -.987E-04 0.188E+02 0.777E-04   0.867E-17 -.178E+01 0.347E-17   0.331E-05 0.312E-02 -.350E-05
   0.132E+02 -.374E+02 -.109E+02   -.134E+02 0.322E+02 0.110E+02   0.181E+00 0.521E+01 -.173E+00   -.110E-01 0.100E-01 0.129E-01
   -.132E+02 0.374E+02 0.109E+02   0.134E+02 -.322E+02 -.110E+02   -.181E+00 -.521E+01 0.173E+00   0.110E-01 -.100E-01 -.129E-01
   -.449E-03 0.171E+02 0.214E-03   -.987E-04 -.188E+02 0.777E-04   0.347E-17 0.178E+01 0.173E-17   0.331E-05 -.312E-02 -.350E-05
   0.132E+02 0.374E+02 -.109E+02   -.134E+02 -.322E+02 0.110E+02   0.181E+00 -.521E+01 -.173E+00   -.110E-01 -.100E-01 0.129E-01
   -.312E-03 0.423E-05 0.261E-03   -.219E-03 0.655E-14 0.610E-05   0.000E+00 -.542E-19 -.542E-19   -.195E-05 -.533E-07 0.255E-05
   -.503E+02 0.181E-05 -.423E+01   0.454E+02 -.198E-13 0.492E+01   0.495E+01 0.000E+00 -.720E+00   0.254E-01 -.259E-07 -.924E-02
   0.522E+01 0.404E-06 -.925E+01   -.478E+01 -.190E-13 0.923E+01   -.498E+00 0.000E+00 -.243E-01   -.165E-01 0.276E-07 0.110E-01
   -.208E-03 0.486E-06 0.249E-03   -.278E-03 -.300E-13 0.765E-05   0.000E+00 0.136E-19 0.108E-18   -.304E-05 0.555E-07 0.232E-05
   -.522E+01 0.404E-06 0.925E+01   0.478E+01 0.580E-13 -.923E+01   0.498E+00 0.000E+00 0.243E-01   0.165E-01 0.276E-07 -.110E-01
   0.503E+02 0.181E-05 0.423E+01   -.454E+02 0.106E-13 -.492E+01   -.495E+01 0.000E+00 0.720E+00   -.254E-01 -.259E-07 0.924E-02
 -----------------------------------------------------------------------------------------------
   0.125E-03 -.300E-04 0.537E-02   -.711E-13 -.220E-13 -.178E-14   0.888E-15 -.407E-19 0.000E+00   -.193E-04 0.240E-07 -.283E-05
 
 
 POSITION                                       TOTAL-FORCE (eV/Angst)
 -----------------------------------------------------------------------------------
      0.00058      0.00000      3.89901         0.000000      0.000000      0.000000
     -0.02740      0.03996      7.84417        -0.027482      0.046604      0.048008
      0.03029      0.03996     11.65089         0.027482      0.046604     -0.048008
      3.90435      0.00000      7.79860         0.000000      0.000000      0.000000
      3.87637     -0.03996     11.74376        -0.027482     -0.046604      0.048008
      0.03029      3.85449     11.65089         0.027482     -0.046604     -0.048008
      1.95246     -1.94723      5.84881         0.000000      0.000000      0.000000
      1.95608     -1.94723      9.75215        -0.040344      0.000000      0.034574
      1.95058      1.94723     13.64250         0.040344      0.000000     -0.034574
      1.95246      1.94723      5.84881         0.000000      0.000000      0.000000
      1.97252      1.94723      9.74079         0.016366      0.000000      0.004994
      5.83617     -1.94723      5.85641        -0.016366      0.000000     -0.004994
      1.95924     -1.94723      7.83341         0.014865      0.000000     -0.035480
      1.94568     -1.94723      3.86421        -0.014865      0.000000      0.035480
      1.95286      1.94723     11.72527        -0.002089      0.000000      0.028108
      1.96278      1.94723      7.75246         0.003028      0.000000     -0.007520
      1.94214      1.94723      3.94516        -0.003028      0.000000      0.007520
      1.95379     -1.94723     11.66938         0.002089      0.000000     -0.028108
     -1.94883      0.04303      5.85031        -0.012440     -0.006445      0.009837
      5.85623     -0.02219      9.74840         0.000000     -0.037239      0.000000
      1.95172      0.04303     13.64475         0.012440     -0.006445     -0.009837
      1.95494     -0.04303      9.74990        -0.012440      0.006445      0.009837
      1.95246      0.02219      5.84881         0.000000      0.037239      0.000000
     -1.95205     -0.04303      9.74516         0.012440      0.006445     -0.009837
      0.00144     -1.94723      9.74753         0.000000      0.000000      0.000000
      0.04992     -1.94723      5.83381         0.084281      0.000000     -0.043783
      3.89733      1.94723      5.84506        -0.076152      0.000000     -0.038307
      0.00144      1.94723      9.74753         0.000000      0.000000      0.000000
      0.00759      1.94723      5.85255         0.076152      0.000000      0.038307
      3.85500     -1.94723      5.86381        -0.084281      0.000000      0.043783
 -----------------------------------------------------------------------------------
    total drift:                                0.000106     -0.000030      0.005368


--------------------------------------------------------------------------------------------------------



  FREE ENERGIE OF THE ION-ELECTRON SYSTEM (eV)
  ---------------------------------------------------
  free  energy   TOTEN  =      -226.79964376 eV

  energy  without entropy=     -226.79964376  energy(sigma->0) =     -226.79964376
 


--------------------------------------------------------------------------------------------------------


    POTLOK:  cpu time    0.0966: real time    0.0968


--------------------------------------------------------------------------------------------------------


     LOOP+:  cpu time   71.8206: real time   72.1028
    4ORBIT:  cpu time    0.0000: real time    0.0000
 


 total charge     
 
# of ion       s       p       d       f       tot
--------------------------------------------------
    1        1.999   5.698   0.482   0.188   8.366
    2        1.999   5.696   0.484   0.187   8.366
    3        1.999   5.697   0.482   0.187   8.365
    4        1.999   5.698   0.482   0.188   8.366
    5        1.998   5.697   0.482   0.187   8.365
    6        1.999   5.696   0.484   0.187   8.367
    7        0.318   0.488   4.878   0.000   5.684
    8        0.343   0.536   4.878   0.000   5.758
    9        0.343   0.536   4.878   0.000   5.758
   10        0.343   0.535   4.873   0.000   5.751
   11        0.381   0.544   8.316   0.000   9.241
   12        0.381   0.544   8.315   0.000   9.241
   13        1.563   3.462   0.000   0.000   5.025
   14        1.563   3.462   0.000   0.000   5.025
   15        1.560   3.459   0.000   0.000   5.019
   16        1.560   3.458   0.000   0.000   5.018
   17        1.560   3.458   0.000   0.000   5.018
   18        1.560   3.459   0.000   0.000   5.019
   19        1.560   3.460   0.000   0.000   5.019
   20        1.564   3.461   0.000   0.000   5.025
   21        1.560   3.460   0.000   0.000   5.020
   22        1.560   3.460   0.000   0.000   5.020
   23        1.564   3.461   0.000   0.000   5.025
   24        1.560   3.460   0.000   0.000   5.019
   25        1.567   3.455   0.000   0.000   5.023
   26        1.559   3.455   0.000   0.000   5.014
   27        1.566   3.460   0.000   0.000   5.026
   28        1.554   3.454   0.000   0.000   5.008
   29        1.566   3.460   0.000   0.000   5.026
   30        1.559   3.455   0.000   0.000   5.014
--------------------------------------------------
tot         42.208  99.621  39.035   1.124 181.988

 


 magnetization (x)
 
# of ion       s       p       d       f       tot
--------------------------------------------------
    1        0.001   0.001   0.011   0.005   0.018
    2        0.000   0.001   0.006   0.005   0.013
    3        0.001   0.001   0.010   0.004   0.015
    4        0.001   0.001   0.010   0.005   0.017
    5        0.001   0.001   0.010   0.004   0.015
    6        0.000   0.001   0.006   0.005   0.013
    7        0.021   0.027   3.651   0.000   3.699
    8        0.027   0.033   3.480   0.000   3.540
    9        0.027   0.033   3.480   0.000   3.540
   10        0.026   0.031   3.472   0.000   3.528
   11        0.006  -0.002   1.709   0.000   1.713
   12        0.006  -0.002   1.709   0.000   1.713
   13        0.004  -0.025   0.000   0.000  -0.020
   14        0.004  -0.025   0.000   0.000  -0.020
   15        0.005  -0.006   0.000   0.000  -0.001
   16        0.005  -0.004   0.000   0.000   0.000
   17        0.005  -0.004   0.000   0.000   0.000
   18        0.005  -0.006   0.000   0.000  -0.001
   19        0.005  -0.005   0.000   0.000   0.000
   20        0.005  -0.029   0.000   0.000  -0.024
   21        0.005  -0.003   0.000   0.000   0.002
   22        0.005  -0.003   0.000   0.000   0.002
   23        0.005  -0.029   0.000   0.000  -0.024
   24        0.005  -0.005   0.000   0.000   0.000
   25        0.008  -0.051   0.000   0.000  -0.043
   26        0.004  -0.011   0.000   0.000  -0.007
   27        0.007  -0.039   0.000   0.000  -0.033
   28        0.006   0.035   0.000   0.000   0.041
   29        0.007  -0.039   0.000   0.000  -0.033
   30        0.004  -0.011   0.000   0.000  -0.008
--------------------------------------------------
tot          0.208  -0.137  17.555   0.028  17.653

 
 BZINTS: Fermi energy:  7.928835;222.000000 electrons
         Band energy:-371.096037;  BLOECHL correction: -0.006321

 total amount of memory used by VASP MPI-rank0    67443. kBytes
=======================================================================

   base      :      30000. kBytes
   nonlr-proj:       7260. kBytes
   fftplans  :       2918. kBytes
   grid      :       8208. kBytes
   one-center:        294. kBytes
   wavefun   :      18763. kBytes
 
  
  
 General timing and accounting informations for this job:
 ========================================================
  
                  Total CPU time used (sec):       79.521
                            User time (sec):       76.812
                          System time (sec):        2.710
                         Elapsed time (sec):       79.996
  
                   Maximum memory used (kb):      110868.
                   Average memory used (kb):           0.
  
                          Minor page faults:        36204
                          Major page faults:            0
                 Voluntary context switches:         1081
