 vasp.5.4.4.18Apr17-6-g9f103f2a35 (build Oct 03 2018 13:58:34) complex          
  
 executed on             LinuxIFC date 2019.06.04  01:18:58
 running on   40 total cores
 distrk:  each k-point on   20 cores,    2 groups
 distr:  one band on NCORES_PER_BAND=  10 cores,    2 groups


--------------------------------------------------------------------------------------------------------


 INCAR:
 POTCAR:    PAW_PBE La 06Sep2000                  
 POTCAR:    PAW_PBE Mn 06Sep2000                  
 POTCAR:    PAW_PBE Ni 02Aug2007                  
 POTCAR:    PAW_PBE O 08Apr2002                   

 ----------------------------------------------------------------------------- 
|                                                                             |
|           W    W    AA    RRRRR   N    N  II  N    N   GGGG   !!!           |
|           W    W   A  A   R    R  NN   N  II  NN   N  G    G  !!!           |
|           W    W  A    A  R    R  N N  N  II  N N  N  G       !!!           |
|           W WW W  AAAAAA  RRRRR   N  N N  II  N  N N  G  GGG   !            |
|           WW  WW  A    A  R   R   N   NN  II  N   NN  G    G                |
|           W    W  A    A  R    R  N    N  II  N    N   GGGG   !!!           |
|                                                                             |
|      You have enabled k-point parallelism (KPAR>1).                         |
|      This developmental code was originally  written by Paul Kent at ORNL,  |
|      and carefully double checked in Vienna.                                |
|      GW as well as linear response parallelism added by Martijn Marsman     |
|      and Georg Kresse.                                                      |
|      Carefully verify results versus KPAR=1.                                |
|      Report problems to Paul Kent and Vienna.                               |
|                                                                             |
 ----------------------------------------------------------------------------- 

 POTCAR:    PAW_PBE La 06Sep2000                  
   VRHFIN =La : [core=Kr4d]                                                     
   LEXCH  = PE                                                                  
   EATOM  =   865.9763 eV,   63.6475 Ry                                         
                                                                                
   TITEL  = PAW_PBE La 06Sep2000                                                
   LULTRA =        F    use ultrasoft PP ?                                      
   IUNSCR =        1    unscreen: 0-lin 1-nonlin 2-no                           
   RPACOR =    2.300    partial core radius                                     
   POMASS =  138.900; ZVAL   =   11.000    mass and valenz                      
   RCORE  =    2.800    outmost cutoff radius                                   
   RWIGS  =    2.900; RWIGS  =    1.535    wigner-seitz radius (au A)           
   ENMAX  =  219.292; ENMIN  =  164.469 eV                                      
   RCLOC  =    1.601    cutoff for local pot                                    
   LCOR   =        T    correct aug charges                                     
   LPAW   =        T    paw PP                                                  
   EAUG   =  583.575                                                            
   DEXC   =    0.000                                                            
   RMAX   =    2.853    core radius for proj-oper                               
   RAUG   =    1.300    factor for augmentation sphere                          
   RDEP   =    2.802    radius for radial grids                                 
   RDEPT  =    2.156    core radius for aug-charge                              
                                                                                
   Atomic configuration                                                         
   14 entries                                                                   
     n  l   j            E        occ.                                          
     1  0  0.50    -38741.0879   2.0000                                         
     2  0  0.50     -6166.6801   2.0000                                         
     2  1  1.50     -5526.1593   6.0000                                         
     3  0  0.50     -1319.0200   2.0000                                         
     3  1  1.50     -1114.5963   6.0000                                         
     3  2  2.50      -821.1793  10.0000                                         
     4  0  0.50      -266.3851   2.0000                                         
     4  1  1.50      -199.9276   6.0000                                         
     4  2  2.50      -103.8239  10.0000                                         
     5  0  0.50       -38.9172   2.0000                                         
     6  0  0.50        -3.6792   2.0000                                         
     5  1  1.50       -22.3948   6.0000                                         
     5  2  2.50        -3.0911   0.9999                                         
     4  3  2.50        -4.3603   0.0001                                         
   Description                                                                  
     l       E           TYP  RCUT    TYP  RCUT                                 
     0    -38.9171645     23  2.800                                             
     0     -3.6792381     23  2.800                                             
     1    -22.3948300     23  2.500                                             
     1     27.2116520     23  2.500                                             
     2     -3.0910934     23  2.500                                             
     2      1.0119135     23  2.500                                             
     3     -4.3602911     23  2.800                                             
     3     -5.7208737     23  2.800                                             
  local pseudopotential read in
  partial core-charges read in
  partial kinetic energy density read in
  atomic valenz-charges read in
  non local Contribution for L=           0  read in
    real space projection operators read in
  non local Contribution for L=           0  read in
    real space projection operators read in
  non local Contribution for L=           1  read in
    real space projection operators read in
  non local Contribution for L=           1  read in
    real space projection operators read in
  non local Contribution for L=           2  read in
    real space projection operators read in
  non local Contribution for L=           2  read in
    real space projection operators read in
  non local Contribution for L=           3  read in
    real space projection operators read in
  non local Contribution for L=           3  read in
    real space projection operators read in
    PAW grid and wavefunctions read in
 
   number of l-projection  operators is LMAX  =           8
   number of lm-projection operators is LMMAX =          32
 
 POTCAR:    PAW_PBE Mn 06Sep2000                  
   VRHFIN =Mn: d6 s1                                                            
   LEXCH  = PE                                                                  
   EATOM  =   416.7541 eV,   30.6306 Ry                                         
                                                                                
   TITEL  = PAW_PBE Mn 06Sep2000                                                
   LULTRA =        F    use ultrasoft PP ?                                      
   IUNSCR =        1    unscreen: 0-lin 1-nonlin 2-no                           
   RPACOR =    2.000    partial core radius                                     
   POMASS =   54.938; ZVAL   =    7.000    mass and valenz                      
   RCORE  =    2.300    outmost cutoff radius                                   
   RWIGS  =    2.500; RWIGS  =    1.323    wigner-seitz radius (au A)           
   ENMAX  =  269.864; ENMIN  =  202.398 eV                                      
   RCLOC  =    1.725    cutoff for local pot                                    
   LCOR   =        T    correct aug charges                                     
   LPAW   =        T    paw PP                                                  
   EAUG   =  500.711                                                            
   DEXC   =    0.000                                                            
   RMAX   =    2.343    core radius for proj-oper                               
   RAUG   =    1.300    factor for augmentation sphere                          
   RDEP   =    2.338    radius for radial grids                                 
   RDEPT  =    1.911    core radius for aug-charge                              
                                                                                
   Atomic configuration                                                         
    9 entries                                                                   
     n  l   j            E        occ.                                          
     1  0  0.50     -6424.8288   2.0000                                         
     2  0  0.50      -739.1154   2.0000                                         
     2  1  1.50      -625.3949   6.0000                                         
     3  0  0.50       -81.6100   2.0000                                         
     3  1  1.50       -50.4667   6.0000                                         
     3  2  2.50        -3.3745   6.0000                                         
     4  0  0.50        -4.1331   1.0000                                         
     4  1  0.50        -4.0817   0.0000                                         
     4  3  2.50        -1.3606   0.0000                                         
   Description                                                                  
     l       E           TYP  RCUT    TYP  RCUT                                 
     2     -3.3744664     23  2.300                                             
     2     -4.7350490     23  2.300                                             
     0     -4.1331408     23  2.300                                             
     0      7.6656614     23  2.300                                             
     1     -2.7211652     23  2.300                                             
     1     20.4087390     23  2.300                                             
  local pseudopotential read in
  partial core-charges read in
  partial kinetic energy density read in
  atomic valenz-charges read in
  non local Contribution for L=           2  read in
    real space projection operators read in
  non local Contribution for L=           2  read in
    real space projection operators read in
  non local Contribution for L=           0  read in
    real space projection operators read in
  non local Contribution for L=           0  read in
    real space projection operators read in
  non local Contribution for L=           1  read in
    real space projection operators read in
  non local Contribution for L=           1  read in
    real space projection operators read in
    PAW grid and wavefunctions read in
 
   number of l-projection  operators is LMAX  =           6
   number of lm-projection operators is LMMAX =          18
 
 POTCAR:    PAW_PBE Ni 02Aug2007                  
   VRHFIN =Ni:                                                                  
   LEXCH  = PE                                                                  
   EATOM  =  1077.6739 eV,   79.2068 Ry                                         
                                                                                
   TITEL  = PAW_PBE Ni 02Aug2007                                                
   LULTRA =        F    use ultrasoft PP ?                                      
   IUNSCR =        1    unscreen: 0-lin 1-nonlin 2-no                           
   RPACOR =    2.000    partial core radius                                     
   POMASS =   58.690; ZVAL   =   10.000    mass and valenz                      
   RCORE  =    2.300    outmost cutoff radius                                   
   RWIGS  =    2.430; RWIGS  =    1.286    wigner-seitz radius (au A)           
   ENMAX  =  269.532; ENMIN  =  202.149 eV                                      
   RCLOC  =    1.201    cutoff for local pot                                    
   LCOR   =        T    correct aug charges                                     
   LPAW   =        T    paw PP                                                  
   EAUG   =  544.565                                                            
   DEXC   =    0.000                                                            
   RMAX   =    2.357    core radius for proj-oper                               
   RAUG   =    1.300    factor for augmentation sphere                          
   RDEP   =    2.390    radius for radial grids                                 
   RDEPT  =    1.838    core radius for aug-charge                              
                                                                                
   Atomic configuration                                                         
    9 entries                                                                   
     n  l   j            E        occ.                                          
     1  0  0.50     -8206.4253   2.0000                                         
     2  0  0.50      -976.1748   2.0000                                         
     2  1  1.50      -839.0571   6.0000                                         
     3  0  0.50      -105.9991   2.0000                                         
     3  1  1.50       -66.4603   6.0000                                         
     3  2  2.50        -4.6458   9.0000                                         
     4  0  0.50        -4.4926   1.0000                                         
     4  1  1.50        -4.0817   0.0000                                         
     4  3  2.50        -1.3606   0.0000                                         
   Description                                                                  
     l       E           TYP  RCUT    TYP  RCUT                                 
     2     -4.6457903     23  2.300                                             
     2     -6.0063729     23  2.300                                             
     0     -4.4925590     23  2.300                                             
     0      5.0102601     23  2.300                                             
     1     -2.7211652     23  2.300                                             
     1     16.5183231     23  2.300                                             
  local pseudopotential read in
  partial core-charges read in
  partial kinetic energy density read in
  atomic valenz-charges read in
  non local Contribution for L=           2  read in
    real space projection operators read in
  non local Contribution for L=           2  read in
    real space projection operators read in
  non local Contribution for L=           0  read in
    real space projection operators read in
  non local Contribution for L=           0  read in
    real space projection operators read in
  non local Contribution for L=           1  read in
    real space projection operators read in
  non local Contribution for L=           1  read in
    real space projection operators read in
    PAW grid and wavefunctions read in
 
   number of l-projection  operators is LMAX  =           6
   number of lm-projection operators is LMMAX =          18
 
 POTCAR:    PAW_PBE O 08Apr2002                   
   VRHFIN =O: s2p4                                                              
   LEXCH  = PE                                                                  
   EATOM  =   432.3788 eV,   31.7789 Ry                                         
                                                                                
   TITEL  = PAW_PBE O 08Apr2002                                                 
   LULTRA =        F    use ultrasoft PP ?                                      
   IUNSCR =        1    unscreen: 0-lin 1-nonlin 2-no                           
   RPACOR =    1.200    partial core radius                                     
   POMASS =   16.000; ZVAL   =    6.000    mass and valenz                      
   RCORE  =    1.520    outmost cutoff radius                                   
   RWIGS  =    1.550; RWIGS  =    0.820    wigner-seitz radius (au A)           
   ENMAX  =  400.000; ENMIN  =  300.000 eV                                      
   ICORE  =        2    local potential                                         
   LCOR   =        T    correct aug charges                                     
   LPAW   =        T    paw PP                                                  
   EAUG   =  605.392                                                            
   DEXC   =    0.000                                                            
   RMAX   =    1.553    core radius for proj-oper                               
   RAUG   =    1.300    factor for augmentation sphere                          
   RDEP   =    1.550    radius for radial grids                                 
   RDEPT  =    1.329    core radius for aug-charge                              
                                                                                
   Atomic configuration                                                         
    4 entries                                                                   
     n  l   j            E        occ.                                          
     1  0  0.50      -514.6923   2.0000                                         
     2  0  0.50       -23.9615   2.0000                                         
     2  1  0.50        -9.0305   4.0000                                         
     3  2  1.50        -9.5241   0.0000                                         
   Description                                                                  
     l       E           TYP  RCUT    TYP  RCUT                                 
     0    -23.9615318     23  1.200                                             
     0     -9.5240782     23  1.200                                             
     1     -9.0304911     23  1.520                                             
     1      8.1634956     23  1.520                                             
     2     -9.5240782      7  1.500                                             
  local pseudopotential read in
  partial core-charges read in
  partial kinetic energy density read in
  kinetic energy density of atom read in
  atomic valenz-charges read in
  non local Contribution for L=           0  read in
    real space projection operators read in
  non local Contribution for L=           0  read in
    real space projection operators read in
  non local Contribution for L=           1  read in
    real space projection operators read in
  non local Contribution for L=           1  read in
    real space projection operators read in
    PAW grid and wavefunctions read in
 
   number of l-projection  operators is LMAX  =           4
   number of lm-projection operators is LMMAX =           8
 
 Optimization of the real space projectors (new method)

 maximal supplied QI-value         = 13.42
 optimisation between [QCUT,QGAM] = [ 11.67, 23.35] = [ 38.16,152.62] Ry 
 Optimized for a Real-space Cutoff    1.63 Angstroem

   l    n(q)    QCUT    max X(q) W(low)/X(q) W(high)/X(q)  e(spline) 
   0     11    11.673    13.882    0.27E-04    0.79E-05    0.11E-06
   0     11    11.673    12.184    0.39E-04    0.13E-04    0.19E-06
   1     11    11.673     4.523    0.73E-05    0.76E-05    0.12E-06
   1     11    11.673     4.424    0.87E-05    0.13E-04    0.19E-06
   2     10    11.673    52.481    0.65E-04    0.36E-04    0.18E-06
   2     10    11.673    38.501    0.61E-04    0.33E-04    0.17E-06
   3     10    11.673    65.631    0.17E-03    0.14E-03    0.37E-06
   3     10    11.673    56.854    0.17E-03    0.14E-03    0.37E-06
 Optimization of the real space projectors (new method)

 maximal supplied QI-value         = 16.25
 optimisation between [QCUT,QGAM] = [ 11.54, 23.24] = [ 37.28,151.24] Ry 
 Optimized for a Real-space Cutoff    1.53 Angstroem

   l    n(q)    QCUT    max X(q) W(low)/X(q) W(high)/X(q)  e(spline) 
   2     10    11.539   110.144    0.12E-03    0.13E-03    0.25E-06
   2     10    11.539   103.200    0.12E-03    0.13E-03    0.25E-06
   0     11    11.539    68.437    0.46E-04    0.21E-04    0.32E-06
   0     11    11.539    33.971    0.37E-04    0.19E-04    0.29E-06
   1     10    11.539    17.065    0.51E-04    0.22E-04    0.13E-06
   1     10    11.539    12.540    0.41E-04    0.18E-04    0.11E-06
 Optimization of the real space projectors (new method)

 maximal supplied QI-value         = 16.25
 optimisation between [QCUT,QGAM] = [ 11.54, 23.24] = [ 37.28,151.24] Ry 
 Optimized for a Real-space Cutoff    1.45 Angstroem

   l    n(q)    QCUT    max X(q) W(low)/X(q) W(high)/X(q)  e(spline) 
   2      9    11.539    60.317    0.19E-03    0.47E-04    0.16E-06
   2      9    11.539    55.921    0.19E-03    0.48E-04    0.16E-06
   0     10    11.539    51.690    0.80E-04    0.50E-04    0.24E-06
   0     10    11.539    30.015    0.73E-04    0.45E-04    0.22E-06
   1     10    11.539    18.849    0.87E-04    0.16E-03    0.71E-07
   1     10    11.539    14.624    0.73E-04    0.13E-03    0.64E-07
 Optimization of the real space projectors (new method)

 maximal supplied QI-value         = 24.76
 optimisation between [QCUT,QGAM] = [ 11.64, 23.27] = [ 37.91,151.63] Ry 
 Optimized for a Real-space Cutoff    1.14 Angstroem

   l    n(q)    QCUT    max X(q) W(low)/X(q) W(high)/X(q)  e(spline) 
   0      8    11.635    20.381    0.10E-03    0.33E-03    0.24E-06
   0      8    11.635    15.268    0.11E-03    0.35E-03    0.26E-06
   1      7    11.635     5.964    0.24E-03    0.31E-03    0.30E-06
   1      7    11.635     5.382    0.22E-03    0.25E-03    0.26E-06
  PAW_PBE La 06Sep2000                  :
 energy of atom  1       EATOM= -865.9763
 kinetic energy error for atom=    0.0009 (will be added to EATOM!!)
  PAW_PBE Mn 06Sep2000                  :
 energy of atom  2       EATOM= -416.7541
 kinetic energy error for atom=    0.0024 (will be added to EATOM!!)
  PAW_PBE Ni 02Aug2007                  :
 energy of atom  3       EATOM=-1077.6739
 kinetic energy error for atom=    0.0030 (will be added to EATOM!!)
  PAW_PBE O 08Apr2002                   :
 energy of atom  4       EATOM= -432.3788
 kinetic energy error for atom=    0.0208 (will be added to EATOM!!)
 
 
 POSCAR: SCEL5_5_1_1_0_3_1/3                     
  positions in direct lattice
  velocities in cartesian coordinates
 exchange correlation table for  LEXCH =        8
   RHO(1)=    0.500       N(1)  =     2000
   RHO(2)=  100.500       N(2)  =     4000
 


--------------------------------------------------------------------------------------------------------


 ion  position               nearest neighbor table
   1  0.803  0.203  0.605-  25 2.70  18 2.70  12 2.70  20 2.73  22 2.73  14 2.74  14 2.74  24 2.74
                            17 2.74  11 2.77  19 2.78  21 2.78   8 3.33  10 3.33  10 3.33   6 3.34
   2  0.597  0.397  0.195-  18 2.70  25 2.70  15 2.70  16 2.73  23 2.73  13 2.74  13 2.74  19 2.74
                            21 2.74  11 2.77  24 2.78  17 2.78  10 3.33   8 3.33   8 3.33   7 3.34
   3  0.400  0.590  0.799-  14 2.68  18 2.69  25 2.69  17 2.73  24 2.73  12 2.74  12 2.74  23 2.75
                            16 2.75  22 2.79  20 2.79  15 2.80  10 3.30   9 3.33   8 3.34   8 3.34
   4  0.200  0.800  0.400-  17 2.73  24 2.73  19 2.73  21 2.73  23 2.74  16 2.74  20 2.74  22 2.74
                            11 2.74  11 2.74  13 2.74  14 2.74   8 3.34  10 3.34   9 3.36   9 3.36
   5  0.000  0.010  0.001-  13 2.68  18 2.69  25 2.69  19 2.73  21 2.73  15 2.74  15 2.74  22 2.75
                            20 2.75  23 2.79  16 2.79  12 2.80   8 3.30   9 3.33  10 3.34  10 3.34
   6  0.801  0.700  0.601-  12 1.88  24 1.90  17 1.90  22 1.90  20 1.90  11 1.95   1 3.34   4 3.36
                             4 3.36   3 3.36   3 3.36   5 3.37   1 3.37   2 3.41
   7  0.599  0.900  0.199-  15 1.88  19 1.90  21 1.90  23 1.90  16 1.90  11 1.95   2 3.34   4 3.36
                             4 3.36   5 3.36   5 3.36   3 3.37   2 3.37   1 3.41
   8  0.001  0.501  0.002-  25 1.95  18 1.95  13 1.95  23 1.96  16 1.96  12 1.98   5 3.30   1 3.33
                             2 3.33   2 3.33   3 3.34   3 3.34   4 3.34
   9  0.200  0.300  0.400-  13 1.91  14 1.91  19 1.98  21 1.98  17 1.98  24 1.98   5 3.33   3 3.33
                             4 3.36   4 3.36   2 3.37   1 3.37   2 3.37   1 3.37
  10  0.399  0.099  0.798-  18 1.95  25 1.95  14 1.95  22 1.96  20 1.96  15 1.98   3 3.30   2 3.33
                             1 3.33   1 3.33   5 3.34   5 3.34   4 3.34
  11  0.700  0.800  0.400-   7 1.95   6 1.95   4 2.74   4 2.74   2 2.77   1 2.77
  12  0.898  0.601  0.796-   6 1.88   8 1.98   1 2.70   3 2.74   3 2.74   5 2.80
  13  0.101  0.399  0.202-   9 1.91   8 1.95   5 2.68   2 2.74   2 2.74   4 2.74
  14  0.299  0.201  0.598-   9 1.91  10 1.95   3 2.68   1 2.74   1 2.74   4 2.74
  15  0.502  0.999  0.004-   7 1.88  10 1.98   2 2.70   5 2.74   5 2.74   3 2.80
  16  0.796  0.703  0.102-   7 1.90   8 1.96   2 2.73   4 2.74   3 2.75   5 2.79
  17  0.997  0.505  0.502-   6 1.90   9 1.98   3 2.73   4 2.73   1 2.74   2 2.78
  18  0.200  0.300  0.900-  10 1.95   8 1.95   5 2.69   3 2.69   1 2.70   2 2.70
  19  0.403  0.095  0.298-   7 1.90   9 1.98   5 2.73   4 2.73   2 2.74   1 2.78
  20  0.604  0.897  0.698-   6 1.90  10 1.96   1 2.73   4 2.74   5 2.75   3 2.79
  21  0.894  0.095  0.298-   7 1.90   9 1.98   5 2.73   4 2.73   2 2.74   1 2.78
  22  0.094  0.897  0.698-   6 1.90  10 1.96   1 2.73   4 2.74   5 2.75   3 2.79
  23  0.306  0.703  0.102-   7 1.90   8 1.96   2 2.73   4 2.74   3 2.75   5 2.79
  24  0.506  0.505  0.502-   6 1.90   9 1.98   3 2.73   4 2.73   1 2.74   2 2.78
  25  0.700  0.300  0.900-  10 1.95   8 1.95   5 2.69   3 2.69   1 2.70   2 2.70
 
  LATTYP: Found a base centered monoclinic cell.
 ALAT       =    16.4175536974
 B/A-ratio  =     0.3332553655
 C/A-ratio  =     0.9723103668
 COS(beta)  =    -0.8675059739
  
  Lattice vectors:
  
 A1 = (  -3.8706021854,   0.0018527947,  -7.7386086324)
 A2 = (  -0.0018527947,   3.8706021854,  -7.7386086324)
 A3 = (   7.7503243027,  -7.7503243027,  11.6052127755)


Analysis of symmetry for initial positions (statically):
=====================================================================
 Subroutine PRICEL returns:
 Original cell was already a primitive cell.
 

 Routine SETGRP: Setting up the symmetry group for a 
 base centered monoclinic supercell.


 Subroutine GETGRP returns: Found  4 space group operations
 (whereof  2 operations were pure point group operations)
 out of a pool of  4 trial point group operations.


The static configuration has the point symmetry C_1h.
 The point group associated with its full space group is C_2h.


Analysis of symmetry for dynamics (positions and initial velocities):
=====================================================================
 Subroutine PRICEL returns:
 Original cell was already a primitive cell.
 

 Routine SETGRP: Setting up the symmetry group for a 
 base centered monoclinic supercell.


 Subroutine GETGRP returns: Found  4 space group operations
 (whereof  2 operations were pure point group operations)
 out of a pool of  4 trial point group operations.


The dynamic configuration has the point symmetry C_1h.
 The point group associated with its full space group is C_2h.


Analysis of structural, dynamic, and magnetic symmetry:
=====================================================================
 Subroutine PRICEL returns:
 Original cell was already a primitive cell.
 

 Routine SETGRP: Setting up the symmetry group for a 
 base centered monoclinic supercell.


 Subroutine GETGRP returns: Found  4 space group operations
 (whereof  2 operations were pure point group operations)
 out of a pool of  4 trial point group operations.


The magnetic configuration has the point symmetry C_1h.
 The point group associated with its full space group is C_2h.


 Subroutine INISYM returns: Found  4 space group operations
 (whereof  2 operations are pure point group operations),
 and found     1 'primitive' translations

 
 
 KPOINTS: Automatic mesh                          

Automatic generation of k-mesh.
 generate k-points for:    4    3    3
Space group operators:
 irot       det(A)        alpha          n_x          n_y          n_z        tau_x        tau_y        tau_z
    1     1.000000     0.000001     1.000000     0.000000     0.000000     0.000000     0.000000     0.000000
    2    -1.000000   179.999999    -0.707107    -0.707107    -0.000000     0.000000     0.000000     0.000000
    3    -1.000000     0.000001     1.000000     0.000000     0.000000     0.400000    -0.400000     0.800000
    4     1.000000   179.999999    -0.707107    -0.707107    -0.000000     0.400000    -0.400000     0.800000
 
 Subroutine IBZKPT returns following result:
 ===========================================
 
 Found     19 irreducible k-points:
 
 Following reciprocal coordinates:
            Coordinates               Weight
  0.000000  0.000000  0.000000      1.000000
  0.250000  0.000000 -0.000000      2.000000
  0.500000  0.000000 -0.000000      1.000000
  0.000000  0.333333  0.000000      2.000000
  0.250000  0.333333 -0.000000      2.000000
  0.500000  0.333333 -0.000000      2.000000
 -0.250000  0.333333 -0.000000      2.000000
  0.000000 -0.000000  0.333333      2.000000
  0.250000  0.000000  0.333333      2.000000
  0.500000  0.000000  0.333333      2.000000
 -0.250000 -0.000000  0.333333      2.000000
  0.000000  0.333333  0.333333      2.000000
  0.250000  0.333333  0.333333      2.000000
  0.500000  0.333333  0.333333      2.000000
 -0.250000  0.333333  0.333333      2.000000
  0.000000 -0.333333  0.333333      2.000000
  0.250000 -0.333333  0.333333      2.000000
  0.500000 -0.333333  0.333333      2.000000
 -0.250000 -0.333333  0.333333      2.000000
 
 Following cartesian coordinates:
            Coordinates               Weight
  0.000000  0.000000  0.000000      1.000000
 -0.038762 -0.025858 -0.012924      2.000000
 -0.077525 -0.051716 -0.025848      1.000000
 -0.034388  0.034388  0.017208      2.000000
 -0.073150  0.008530  0.004284      2.000000
 -0.111913 -0.017328 -0.008640      2.000000
  0.004374  0.060246  0.030132      2.000000
 -0.017206  0.017206 -0.034464      2.000000
 -0.055968 -0.008652 -0.047388      2.000000
 -0.094731 -0.034510 -0.060312      2.000000
  0.021556  0.043064 -0.021540      2.000000
 -0.051594  0.051594 -0.017256      2.000000
 -0.090356  0.025736 -0.030180      2.000000
 -0.129119 -0.000122 -0.043104      2.000000
 -0.012832  0.077452 -0.004332      2.000000
  0.017182 -0.017182 -0.051672      2.000000
 -0.021580 -0.043040 -0.064596      2.000000
 -0.060343 -0.068898 -0.077520      2.000000
  0.055944  0.008676 -0.038748      2.000000
 
 TETIRR: Found    106 inequivalent tetrahedra from      216


--------------------------------------------------------------------------------------------------------




 Dimension of arrays:
   k-points           NKPTS =     19   k-points in BZ     NKDIM =     19   number of bands    NBANDS=    122
   number of dos      NEDOS =    301   number of ions     NIONS =     25
   non local maximal  LDIM  =      8   non local SUM 2l+1 LMDIM =     32
   total plane-waves  NPLWV = 134400
   max r-space proj   IRMAX =   8408   max aug-charges    IRDMAX=  24396
   dimension x,y,z NGX =    42 NGY =   50 NGZ =   64
   dimension x,y,z NGXF=    84 NGYF=  100 NGZF=  128
   support grid    NGXF=    84 NGYF=  100 NGZF=  128
   ions per type =               5   2   3  15
   NGX,Y,Z   is equivalent  to a cutoff of  12.76, 12.38, 12.30 a.u.
   NGXF,Y,Z  is equivalent  to a cutoff of  25.52, 24.76, 24.59 a.u.

 SYSTEM =  final                                   
 POSCAR =  SCEL5_5_1_1_0_3_1/3                     

 Startparameter for this run:
   NWRITE =      2    write-flag & timer
   PREC   = accura    normal or accurate (medium, high low for compatibility)
   ISTART =      0    job   : 0-new  1-cont  2-samecut
   ICHARG =      1    charge: 1-file 2-atom 10-const
   ISPIN  =      2    spin polarized calculation?
   LNONCOLLINEAR =      F non collinear calculations
   LSORBIT =      F    spin-orbit coupling
   INIWAV =      1    electr: 0-lowe 1-rand  2-diag
   LASPH  =      F    aspherical Exc in radial PAW
   METAGGA=      F    non-selfconsistent MetaGGA calc.

 Electronic Relaxation 1
   ENCUT  =  520.0 eV  38.22 Ry    6.18 a.u.  10.17 12.48 16.09*2*pi/ulx,y,z
   ENINI  =  520.0     initial cutoff
   ENAUG  =  605.4 eV  augmentation charge cutoff
   NELM   =    100;   NELMIN=  2; NELMDL= -5     # of ELM steps 
   EDIFF  = 0.1E-02   stopping-criterion for ELM
   LREAL  =      T    real-space projection
   NLSPLINE    = F    spline interpolate recip. space projectors
   LCOMPAT=      F    compatible to vasp.4.4
   GGA_COMPAT  = T    GGA compatible to vasp.4.4-vasp.4.6
   LMAXPAW     = -100 max onsite density
   LMAXMIX     =    6 max onsite mixed and CHGCAR
   VOSKOWN=      0    Vosko Wilk Nusair interpolation
   ROPT   =   -0.00025  -0.00025  -0.00025  -0.00025
 Ionic relaxation
   EDIFFG = 0.1E-01   stopping-criterion for IOM
   NSW    =      0    number of steps for IOM
   NBLOCK =      1;   KBLOCK =      1    inner block; outer block 
   IBRION =     -1    ionic relax: 0-MD 1-quasi-New 2-CG
   NFREE  =      0    steps in history (QN), initial steepest desc. (CG)
   ISIF   =      2    stress and relaxation
   IWAVPR =     10    prediction:  0-non 1-charg 2-wave 3-comb
   ISYM   =      2    0-nonsym 1-usesym 2-fastsym
   LCORR  =      T    Harris-Foulkes like correction to forces

   POTIM  = 0.5000    time-step for ionic-motion
   TEIN   =    0.0    initial temperature
   TEBEG  =    0.0;   TEEND  =   0.0 temperature during run
   SMASS  =  -3.00    Nose mass-parameter (am)
   estimated Nose-frequenzy (Omega)   =  0.10E-29 period in steps =****** mass=  -0.684E-27a.u.
   SCALEE = 1.0000    scale energy and forces
   NPACO  =    256;   APACO  = 16.0  distance and # of slots for P.C.
   PSTRESS=    0.0 pullay stress

  Mass of Ions in am
   POMASS = 138.90 54.94 58.69 16.00
  Ionic Valenz
   ZVAL   =  11.00  7.00 10.00  6.00
  Atomic Wigner-Seitz radii
   RWIGS  =  -1.00 -1.00 -1.00 -1.00
  virtual crystal weights 
   VCA    =   1.00  1.00  1.00  1.00
   NELECT =     189.0000    total number of electrons
   NUPDOWN=      -1.0000    fix difference up-down

 DOS related values:
   EMIN   =  10.00;   EMAX   =-10.00  energy-range for DOS
   EFERMI =   0.00
   ISMEAR =    -5;   SIGMA  =   0.05  broadening in eV -4-tet -1-fermi 0-gaus

 Electronic relaxation 2 (details)
   IALGO  =     68    algorithm
   LDIAG  =      T    sub-space diagonalisation (order eigenvalues)
   LSUBROT=      F    optimize rotation matrix (better conditioning)
   TURBO    =      0    0=normal 1=particle mesh
   IRESTART =      0    0=no restart 2=restart with 2 vectors
   NREBOOT  =      0    no. of reboots
   NMIN     =      0    reboot dimension
   EREF     =   0.00    reference energy to select bands
   IMIX   =      4    mixing-type and parameters
     AMIX     =   0.40;   BMIX     =  1.00
     AMIX_MAG =   1.60;   BMIX_MAG =  1.00
     AMIN     =   0.10
     WC   =   100.;   INIMIX=   1;  MIXPRE=   1;  MAXMIX= -45

 Intra band minimization:
   WEIMIN = 0.0000     energy-eigenvalue tresh-hold
   EBREAK =  0.20E-05  absolut break condition
   DEPER  =   0.30     relativ break condition  

   TIME   =   0.40     timestep for ELM

  volume/ion in A,a.u.               =      11.61        78.34
  Fermi-wavevector in a.u.,A,eV,Ry     =   1.419036  2.681590 27.397557  2.013664
  Thomas-Fermi vector in A             =   2.540099
 
 Write flags
   LWAVE        =      F    write WAVECAR
   LDOWNSAMPLE  =      F    k-point downsampling of WAVECAR
   LCHARG       =      T    write CHGCAR
   LVTOT        =      F    write LOCPOT, total local potential
   LVHAR        =      F    write LOCPOT, Hartree potential only
   LELF         =      F    write electronic localiz. function (ELF)
   LORBIT       =     11    0 simple, 1 ext, 2 COOP (PROOUT), +10 PAW based schemes


 Dipole corrections
   LMONO  =      F    monopole corrections only (constant potential shift)
   LDIPOL =      F    correct potential (dipole corrections)
   IDIPOL =      0    1-x, 2-y, 3-z, 4-all directions 
   EPSILON=  1.0000000 bulk dielectric constant

 LDA+U is selected, type is set to LDAUTYPE =  2
   angular momentum for each species LDAUL =     0    2    2    0
   U (eV)           for each species LDAUU =   0.0  3.9  6.2  0.0
   J (eV)           for each species LDAUJ =   0.0  0.0  0.0  0.0
 Exchange correlation treatment:
   GGA     =    --    GGA type
   LEXCH   =     8    internal setting for exchange type
   VOSKOWN=      0    Vosko Wilk Nusair interpolation
   LHFCALC =     F    Hartree Fock is set to
   LHFONE  =     F    Hartree Fock one center treatment
   AEXX    =    0.0000 exact exchange contribution

 Linear response parameters
   LEPSILON=     F    determine dielectric tensor
   LRPA    =     F    only Hartree local field effects (RPA)
   LNABLA  =     F    use nabla operator in PAW spheres
   LVEL    =     F    velocity operator in full k-point grid
   LINTERFAST=   F  fast interpolation
   KINTER  =     0    interpolate to denser k-point grid
   CSHIFT  =0.1000    complex shift for real part using Kramers Kronig
   OMEGAMAX=  -1.0    maximum frequency
   DEG_THRESHOLD= 0.2000000E-02 threshold for treating states as degnerate
   RTIME   =   -0.100 relaxation time in fs
  (WPLASMAI=    0.000 imaginary part of plasma frequency in eV, 0.658/RTIME)
   DFIELD  = 0.0000000 0.0000000 0.0000000 field for delta impulse in time
 
 Orbital magnetization related:
   ORBITALMAG=     F  switch on orbital magnetization
   LCHIMAG   =     F  perturbation theory with respect to B field
   DQ        =  0.001000  dq finite difference perturbation B field
   LLRAUG    =     F  two centre corrections for induced B field



--------------------------------------------------------------------------------------------------------


 Static calculation
 charge density and potential will be updated during run
 spin polarized calculation
 RMM-DIIS sequential band-by-band and
  variant of blocked Davidson during initial phase
 perform sub-space diagonalisation
    before iterative eigenvector-optimisation
 modified Broyden-mixing scheme, WC =      100.0
 initial mixing is a Kerker type mixing with AMIX =  0.4000 and BMIX =      1.0000
 Hartree-type preconditioning will be used
 using additional bands           27
 real space projection scheme for non local part
 use partial core corrections
 calculate Harris-corrections to forces 
   (improved forces if not selfconsistent)
 use gradient corrections 
 use of overlap-Matrix (Vanderbilt PP)
 Fermi weights with tetrahedron method with Bloechl corrections


--------------------------------------------------------------------------------------------------------


  energy-cutoff  :      520.00
  volume of cell :      290.21
      direct lattice vectors                 reciprocal lattice vectors
    -3.868749391 -3.868749391  0.000000000    -0.155049693 -0.103431769 -0.051696109
    -3.877869323  3.877869323  3.872004489    -0.103163857  0.103163857  0.051623930
    -0.001852795  3.870602185 -7.738608632    -0.051617925  0.051617925 -0.103392218

  length of vectors
     5.471237858  6.713282337  8.652608178     0.193419301  0.154759791  0.126565284


 
 k-points in units of 2pi/SCALE and weight: Automatic mesh                          
   0.00000000  0.00000000  0.00000000       0.028
  -0.03876242 -0.02585794 -0.01292403       0.056
  -0.07752485 -0.05171588 -0.02584805       0.028
  -0.03438795  0.03438795  0.01720798       0.056
  -0.07315038  0.00853001  0.00428395       0.056
  -0.11191280 -0.01732793 -0.00864008       0.056
   0.00437447  0.06024589  0.03013200       0.056
  -0.01720597  0.01720597 -0.03446407       0.056
  -0.05596840 -0.00865197 -0.04738810       0.056
  -0.09473082 -0.03450991 -0.06031213       0.056
   0.02155645  0.04306392 -0.02154005       0.056
  -0.05159393  0.05159393 -0.01725610       0.056
  -0.09035635  0.02573598 -0.03018012       0.056
  -0.12911877 -0.00012196 -0.04310415       0.056
  -0.01283150  0.07745187 -0.00433207       0.056
   0.01718198 -0.01718198 -0.05167205       0.056
  -0.02158045 -0.04303992 -0.06459608       0.056
  -0.06034287 -0.06889786 -0.07752010       0.056
   0.05594440  0.00867596 -0.03874802       0.056
 
 k-points in reciprocal lattice and weights: Automatic mesh                          
   0.00000000  0.00000000  0.00000000       0.028
   0.25000000  0.00000000 -0.00000000       0.056
   0.50000000  0.00000000 -0.00000000       0.028
   0.00000000  0.33333333  0.00000000       0.056
   0.25000000  0.33333333 -0.00000000       0.056
   0.50000000  0.33333333 -0.00000000       0.056
  -0.25000000  0.33333333 -0.00000000       0.056
   0.00000000 -0.00000000  0.33333333       0.056
   0.25000000  0.00000000  0.33333333       0.056
   0.50000000  0.00000000  0.33333333       0.056
  -0.25000000 -0.00000000  0.33333333       0.056
   0.00000000  0.33333333  0.33333333       0.056
   0.25000000  0.33333333  0.33333333       0.056
   0.50000000  0.33333333  0.33333333       0.056
  -0.25000000  0.33333333  0.33333333       0.056
   0.00000000 -0.33333333  0.33333333       0.056
   0.25000000 -0.33333333  0.33333333       0.056
   0.50000000 -0.33333333  0.33333333       0.056
  -0.25000000 -0.33333333  0.33333333       0.056
 
 position of ions in fractional coordinates (direct lattice) 
   0.80256585  0.20338104  0.60513170
   0.59743415  0.39661896  0.19486830
   0.39957555  0.59012096  0.79915109
   0.20000000  0.80000000  0.40000000
   0.00042445  0.00987904  0.00084891
   0.80074539  0.69968761  0.60149078
   0.59925461  0.90031239  0.19850922
   0.00080963  0.50146966  0.00161926
   0.20000000  0.30000000  0.40000000
   0.39919037  0.09853034  0.79838074
   0.70000000  0.80000000  0.40000000
   0.89775812  0.60131537  0.79551625
   0.10106975  0.39870612  0.20213951
   0.29893025  0.20129388  0.59786049
   0.50224188  0.99868463  0.00448375
   0.79646866  0.70315758  0.10206197
   0.99667976  0.50460439  0.50227483
   0.20000000  0.30000000  0.90000000
   0.40332024  0.09539561  0.29772517
   0.60353134  0.89684242  0.69793803
   0.89440493  0.09539561  0.29772517
   0.09440670  0.89684242  0.69793803
   0.30559330  0.70315758  0.10206197
   0.50559507  0.50460439  0.50227483
   0.70000000  0.30000000  0.90000000
 
 position of ions in cartesian coordinates  (Angst):
  -3.89473242  0.02598303 -3.89538506
  -3.84972055 -0.01902884  0.02770084
  -3.83575029  3.83575029 -3.89936650
  -3.87678645  3.87678645  0.00216014
  -0.03995329  0.03995329  0.03168229
  -5.81229478  1.94354539 -1.94550817
  -5.81002751  1.94127812  1.94982845
  -1.94776907  1.94776907  1.92916200
  -1.93785179  1.93785179 -1.93384211
  -1.92793451  1.92793451 -5.79684621
  -5.81116115  1.94241176  0.00216014
  -5.80649757  1.93774818 -3.82789306
  -1.93751829  1.93751829 -0.02048667
  -1.93818529  1.93818529 -3.84719755
  -5.81582473  1.94707534  3.83221334
  -5.80827994  0.04045681  1.93281168
  -5.81362471  0.04499173 -1.93307788
  -1.93877819  3.87315289 -5.80314642
  -1.93082827 -0.03803753 -1.93460633
  -5.81404236  3.84436671 -1.92849141
  -3.83071186 -1.93792112 -1.93460633
  -3.84436671  5.81404236 -1.92849141
  -3.90920620  1.93953055  1.93281168
  -3.91374112  1.94487532 -1.93307788
  -3.87315289  1.93877819 -5.80314642
 


--------------------------------------------------------------------------------------------------------


 k-point  1 :   0.0000 0.0000 0.0000  plane waves:    7805
 k-point  2 :   0.2500 0.0000-0.0000  plane waves:    7820
 k-point  3 :   0.5000 0.0000-0.0000  plane waves:    7852
 k-point  4 :   0.0000 0.3333 0.0000  plane waves:    7829
 k-point  5 :   0.2500 0.3333-0.0000  plane waves:    7794
 k-point  6 :   0.5000 0.3333-0.0000  plane waves:    7815
 k-point  7 :  -0.2500 0.3333-0.0000  plane waves:    7807
 k-point  8 :   0.0000-0.0000 0.3333  plane waves:    7807
 k-point  9 :   0.2500 0.0000 0.3333  plane waves:    7839
 k-point 10 :   0.5000 0.0000 0.3333  plane waves:    7830
 k-point 11 :  -0.2500-0.0000 0.3333  plane waves:    7827
 k-point 12 :   0.0000 0.3333 0.3333  plane waves:    7798
 k-point 13 :   0.2500 0.3333 0.3333  plane waves:    7817
 k-point 14 :   0.5000 0.3333 0.3333  plane waves:    7814
 k-point 15 :  -0.2500 0.3333 0.3333  plane waves:    7796
 k-point 16 :   0.0000-0.3333 0.3333  plane waves:    7817
 k-point 17 :   0.2500-0.3333 0.3333  plane waves:    7814
 k-point 18 :   0.5000-0.3333 0.3333  plane waves:    7821
 k-point 19 :  -0.2500-0.3333 0.3333  plane waves:    7808

 maximum and minimum number of plane-waves per node :       797      762

 maximum number of plane-waves:      7852
 maximum index in each direction: 
   IXMAX=   10   IYMAX=   12   IZMAX=   16
   IXMIN=  -10   IYMIN=  -12   IZMIN=  -16


 real space projection operators:
  total allocation   :      17056.42 KBytes
  max/ min on nodes  :       2025.31       1602.59


 parallel 3D FFT for wavefunctions:
    minimum data exchange during FFTs selected (reduces bandwidth)
 parallel 3D FFT for charge:
    minimum data exchange during FFTs selected (reduces bandwidth)


 total amount of memory used by VASP MPI-rank0    77601. kBytes
=======================================================================

   base      :      30000. kBytes
   nonlr-proj:       6062. kBytes
   fftplans  :       2580. kBytes
   grid      :       7512. kBytes
   one-center:        294. kBytes
   wavefun   :      31153. kBytes
 
     INWAV:  cpu time    0.0000: real time    0.0001
 Broyden mixing: mesh for mixing (old mesh)
   NGX = 21   NGY = 25   NGZ = 33
  (NGX  = 84   NGY  =100   NGZ  =128)
  gives a total of  17325 points

 initial charge density was supplied:
 charge density of overlapping atoms calculated
 number of electron     189.0000000 magnetization      17.0000000
 keeping initial charge density in first step


--------------------------------------------------------------------------------------------------------


 Maximum index for non-local projection operator         1183
 Maximum index for augmentation-charges         1843 (set IRDMAX)


--------------------------------------------------------------------------------------------------------


 First call to EWALD:  gamma=   0.268
 Maximum number of real-space cells 3x 3x 2
 Maximum number of reciprocal cells 2x 3x 3

    FEWALD:  cpu time    0.0023: real time    0.0023


--------------------------------------- Iteration      1(   1)  ---------------------------------------


    POTLOK:  cpu time    0.0712: real time    0.0735
    SETDIJ:  cpu time    0.0135: real time    0.0135
atom =   1  type =  1  l = 0
 
 onsite density matrix
 
spin component  1
 
  1.0989
 
spin component  2
 
  1.0989
 
 occupancies and eigenvectors
 
  o =  1.0989  v =  1.0000  0.0000      0.0000  0.0000
  o =  1.0989  v =  0.0000  1.0000      0.0000  0.0000
atom =   2  type =  1  l = 0
 
 onsite density matrix
 
spin component  1
 
  1.0989
 
spin component  2
 
  1.0989
 
 occupancies and eigenvectors
 
  o =  1.0989  v =  1.0000  0.0000      0.0000  0.0000
  o =  1.0989  v =  0.0000  1.0000      0.0000  0.0000
atom =   3  type =  1  l = 0
 
 onsite density matrix
 
spin component  1
 
  1.0989
 
spin component  2
 
  1.0989
 
 occupancies and eigenvectors
 
  o =  1.0989  v =  1.0000  0.0000      0.0000  0.0000
  o =  1.0989  v =  0.0000  1.0000      0.0000  0.0000
atom =   4  type =  1  l = 0
 
 onsite density matrix
 
spin component  1
 
  1.0989
 
spin component  2
 
  1.0989
 
 occupancies and eigenvectors
 
  o =  1.0989  v =  1.0000  0.0000      0.0000  0.0000
  o =  1.0989  v =  0.0000  1.0000      0.0000  0.0000
atom =   5  type =  1  l = 0
 
 onsite density matrix
 
spin component  1
 
  1.0989
 
spin component  2
 
  1.0989
 
 occupancies and eigenvectors
 
  o =  1.0989  v =  1.0000  0.0000      0.0000  0.0000
  o =  1.0989  v =  0.0000  1.0000      0.0000  0.0000
atom =   6  type =  2  l = 2
 
 onsite density matrix
 
spin component  1
 
  0.8272  0.0000  0.0000  0.0000  0.0000
  0.0000  0.8272  0.0000  0.0000  0.0000
  0.0000  0.0000  0.8272  0.0000  0.0000
  0.0000  0.0000  0.0000  0.8272  0.0000
  0.0000  0.0000  0.0000  0.0000  0.8272
 
spin component  2
 
  0.2256  0.0000  0.0000  0.0000  0.0000
  0.0000  0.2256  0.0000  0.0000  0.0000
  0.0000  0.0000  0.2256  0.0000  0.0000
  0.0000  0.0000  0.0000  0.2256  0.0000
  0.0000  0.0000  0.0000  0.0000  0.2256
 
 occupancies and eigenvectors
 
  o =  0.2256  v =  0.0000  0.0000  0.0000  0.0000  0.0000  0.0000  0.0000  1.0000  0.0000  0.0000      0.0000  0.0000  0.0000  0.0000  0.0000  0.0000  0.0000  0.0000  0.0000  0.0000
  o =  0.2256  v =  0.0000  0.0000  0.0000  0.0000  0.0000  1.0000  0.0000  0.0000  0.0000  0.0000      0.0000  0.0000  0.0000  0.0000  0.0000  0.0000  0.0000  0.0000  0.0000  0.0000
  o =  0.2256  v =  0.0000  0.0000  0.0000  0.0000  0.0000  0.0000  1.0000  0.0000  0.0000  0.0000      0.0000  0.0000  0.0000  0.0000  0.0000  0.0000  0.0000  0.0000  0.0000  0.0000
  o =  0.2256  v =  0.0000  0.0000  0.0000  0.0000  0.0000  0.0000  0.0000  0.0000  1.0000  0.0000      0.0000  0.0000  0.0000  0.0000  0.0000  0.0000  0.0000  0.0000  0.0000  0.0000
  o =  0.2256  v =  0.0000  0.0000  0.0000  0.0000  0.0000  0.0000  0.0000  0.0000  0.0000  1.0000      0.0000  0.0000  0.0000  0.0000  0.0000  0.0000  0.0000  0.0000  0.0000  0.0000
  o =  0.8272  v =  0.0000  1.0000  0.0000  0.0000  0.0000  0.0000  0.0000  0.0000  0.0000  0.0000      0.0000  0.0000  0.0000  0.0000  0.0000  0.0000  0.0000  0.0000  0.0000  0.0000
  o =  0.8272  v =  0.0000  0.0000  1.0000  0.0000  0.0000  0.0000  0.0000  0.0000  0.0000  0.0000      0.0000  0.0000  0.0000  0.0000  0.0000  0.0000  0.0000  0.0000  0.0000  0.0000
  o =  0.8272  v =  1.0000  0.0000  0.0000  0.0000  0.0000  0.0000  0.0000  0.0000  0.0000  0.0000      0.0000  0.0000  0.0000  0.0000  0.0000  0.0000  0.0000  0.0000  0.0000  0.0000
  o =  0.8272  v =  0.0000  0.0000  0.0000  1.0000  0.0000  0.0000  0.0000  0.0000  0.0000  0.0000      0.0000  0.0000  0.0000  0.0000  0.0000  0.0000  0.0000  0.0000  0.0000  0.0000
  o =  0.8272  v =  0.0000  0.0000  0.0000  0.0000  1.0000  0.0000  0.0000  0.0000  0.0000  0.0000      0.0000  0.0000  0.0000  0.0000  0.0000  0.0000  0.0000  0.0000  0.0000  0.0000
atom =   7  type =  2  l = 2
 
 onsite density matrix
 
spin component  1
 
  0.8272  0.0000  0.0000  0.0000  0.0000
  0.0000  0.8272  0.0000  0.0000  0.0000
  0.0000  0.0000  0.8272  0.0000  0.0000
  0.0000  0.0000  0.0000  0.8272  0.0000
  0.0000  0.0000  0.0000  0.0000  0.8272
 
spin component  2
 
  0.2256  0.0000  0.0000  0.0000  0.0000
  0.0000  0.2256  0.0000  0.0000  0.0000
  0.0000  0.0000  0.2256  0.0000  0.0000
  0.0000  0.0000  0.0000  0.2256  0.0000
  0.0000  0.0000  0.0000  0.0000  0.2256
 
 occupancies and eigenvectors
 
  o =  0.2256  v =  0.0000  0.0000  0.0000  0.0000  0.0000  0.0000  0.0000  1.0000  0.0000  0.0000      0.0000  0.0000  0.0000  0.0000  0.0000  0.0000  0.0000  0.0000  0.0000  0.0000
  o =  0.2256  v =  0.0000  0.0000  0.0000  0.0000  0.0000  1.0000  0.0000  0.0000  0.0000  0.0000      0.0000  0.0000  0.0000  0.0000  0.0000  0.0000  0.0000  0.0000  0.0000  0.0000
  o =  0.2256  v =  0.0000  0.0000  0.0000  0.0000  0.0000  0.0000  1.0000  0.0000  0.0000  0.0000      0.0000  0.0000  0.0000  0.0000  0.0000  0.0000  0.0000  0.0000  0.0000  0.0000
  o =  0.2256  v =  0.0000  0.0000  0.0000  0.0000  0.0000  0.0000  0.0000  0.0000  1.0000  0.0000      0.0000  0.0000  0.0000  0.0000  0.0000  0.0000  0.0000  0.0000  0.0000  0.0000
  o =  0.2256  v =  0.0000  0.0000  0.0000  0.0000  0.0000  0.0000  0.0000  0.0000  0.0000  1.0000      0.0000  0.0000  0.0000  0.0000  0.0000  0.0000  0.0000  0.0000  0.0000  0.0000
  o =  0.8272  v =  0.0000  1.0000  0.0000  0.0000  0.0000  0.0000  0.0000  0.0000  0.0000  0.0000      0.0000  0.0000  0.0000  0.0000  0.0000  0.0000  0.0000  0.0000  0.0000  0.0000
  o =  0.8272  v =  0.0000  0.0000  1.0000  0.0000  0.0000  0.0000  0.0000  0.0000  0.0000  0.0000      0.0000  0.0000  0.0000  0.0000  0.0000  0.0000  0.0000  0.0000  0.0000  0.0000
  o =  0.8272  v =  1.0000  0.0000  0.0000  0.0000  0.0000  0.0000  0.0000  0.0000  0.0000  0.0000      0.0000  0.0000  0.0000  0.0000  0.0000  0.0000  0.0000  0.0000  0.0000  0.0000
  o =  0.8272  v =  0.0000  0.0000  0.0000  1.0000  0.0000  0.0000  0.0000  0.0000  0.0000  0.0000      0.0000  0.0000  0.0000  0.0000  0.0000  0.0000  0.0000  0.0000  0.0000  0.0000
  o =  0.8272  v =  0.0000  0.0000  0.0000  0.0000  1.0000  0.0000  0.0000  0.0000  0.0000  0.0000      0.0000  0.0000  0.0000  0.0000  0.0000  0.0000  0.0000  0.0000  0.0000  0.0000
atom =   8  type =  3  l = 2
 
 onsite density matrix
 
spin component  1
 
  1.1008  0.0000  0.0000  0.0000  0.0000
  0.0000  1.1008  0.0000  0.0000  0.0000
  0.0000  0.0000  1.1008  0.0000  0.0000
  0.0000  0.0000  0.0000  1.1008  0.0000
  0.0000  0.0000  0.0000  0.0000  1.1008
 
spin component  2
 
  0.5927  0.0000  0.0000  0.0000  0.0000
  0.0000  0.5927  0.0000  0.0000  0.0000
  0.0000  0.0000  0.5927  0.0000  0.0000
  0.0000  0.0000  0.0000  0.5927  0.0000
  0.0000  0.0000  0.0000  0.0000  0.5927
 
 occupancies and eigenvectors
 
  o =  0.5927  v =  0.0000  0.0000  0.0000  0.0000  0.0000  1.0000  0.0000  0.0000  0.0000  0.0000      0.0000  0.0000  0.0000  0.0000  0.0000  0.0000  0.0000  0.0000  0.0000  0.0000
  o =  0.5927  v =  0.0000  0.0000  0.0000  0.0000  0.0000  0.0000  1.0000  0.0000  0.0000  0.0000      0.0000  0.0000  0.0000  0.0000  0.0000  0.0000  0.0000  0.0000  0.0000  0.0000
  o =  0.5927  v =  0.0000  0.0000  0.0000  0.0000  0.0000  0.0000  0.0000  1.0000  0.0000  0.0000      0.0000  0.0000  0.0000  0.0000  0.0000  0.0000  0.0000  0.0000  0.0000  0.0000
  o =  0.5927  v =  0.0000  0.0000  0.0000  0.0000  0.0000  0.0000  0.0000  0.0000  1.0000  0.0000      0.0000  0.0000  0.0000  0.0000  0.0000  0.0000  0.0000  0.0000  0.0000  0.0000
  o =  0.5927  v =  0.0000  0.0000  0.0000  0.0000  0.0000  0.0000  0.0000  0.0000  0.0000  1.0000      0.0000  0.0000  0.0000  0.0000  0.0000  0.0000  0.0000  0.0000  0.0000  0.0000
  o =  1.1008  v =  1.0000  0.0000  0.0000  0.0000  0.0000  0.0000  0.0000  0.0000  0.0000  0.0000      0.0000  0.0000  0.0000  0.0000  0.0000  0.0000  0.0000  0.0000  0.0000  0.0000
  o =  1.1008  v =  0.0000  1.0000  0.0000  0.0000  0.0000  0.0000  0.0000  0.0000  0.0000  0.0000      0.0000  0.0000  0.0000  0.0000  0.0000  0.0000  0.0000  0.0000  0.0000  0.0000
  o =  1.1008  v =  0.0000  0.0000  1.0000  0.0000  0.0000  0.0000  0.0000  0.0000  0.0000  0.0000      0.0000  0.0000  0.0000  0.0000  0.0000  0.0000  0.0000  0.0000  0.0000  0.0000
  o =  1.1008  v =  0.0000  0.0000  0.0000  1.0000  0.0000  0.0000  0.0000  0.0000  0.0000  0.0000      0.0000  0.0000  0.0000  0.0000  0.0000  0.0000  0.0000  0.0000  0.0000  0.0000
  o =  1.1008  v =  0.0000  0.0000  0.0000  0.0000  1.0000  0.0000  0.0000  0.0000  0.0000  0.0000      0.0000  0.0000  0.0000  0.0000  0.0000  0.0000  0.0000  0.0000  0.0000  0.0000
atom =   9  type =  3  l = 2
 
 onsite density matrix
 
spin component  1
 
  1.1008  0.0000  0.0000  0.0000  0.0000
  0.0000  1.1008  0.0000  0.0000  0.0000
  0.0000  0.0000  1.1008  0.0000  0.0000
  0.0000  0.0000  0.0000  1.1008  0.0000
  0.0000  0.0000  0.0000  0.0000  1.1008
 
spin component  2
 
  0.5927  0.0000  0.0000  0.0000  0.0000
  0.0000  0.5927  0.0000  0.0000  0.0000
  0.0000  0.0000  0.5927  0.0000  0.0000
  0.0000  0.0000  0.0000  0.5927  0.0000
  0.0000  0.0000  0.0000  0.0000  0.5927
 
 occupancies and eigenvectors
 
  o =  0.5927  v =  0.0000  0.0000  0.0000  0.0000  0.0000  1.0000  0.0000  0.0000  0.0000  0.0000      0.0000  0.0000  0.0000  0.0000  0.0000  0.0000  0.0000  0.0000  0.0000  0.0000
  o =  0.5927  v =  0.0000  0.0000  0.0000  0.0000  0.0000  0.0000  1.0000  0.0000  0.0000  0.0000      0.0000  0.0000  0.0000  0.0000  0.0000  0.0000  0.0000  0.0000  0.0000  0.0000
  o =  0.5927  v =  0.0000  0.0000  0.0000  0.0000  0.0000  0.0000  0.0000  1.0000  0.0000  0.0000      0.0000  0.0000  0.0000  0.0000  0.0000  0.0000  0.0000  0.0000  0.0000  0.0000
  o =  0.5927  v =  0.0000  0.0000  0.0000  0.0000  0.0000  0.0000  0.0000  0.0000  1.0000  0.0000      0.0000  0.0000  0.0000  0.0000  0.0000  0.0000  0.0000  0.0000  0.0000  0.0000
  o =  0.5927  v =  0.0000  0.0000  0.0000  0.0000  0.0000  0.0000  0.0000  0.0000  0.0000  1.0000      0.0000  0.0000  0.0000  0.0000  0.0000  0.0000  0.0000  0.0000  0.0000  0.0000
  o =  1.1008  v =  1.0000  0.0000  0.0000  0.0000  0.0000  0.0000  0.0000  0.0000  0.0000  0.0000      0.0000  0.0000  0.0000  0.0000  0.0000  0.0000  0.0000  0.0000  0.0000  0.0000
  o =  1.1008  v =  0.0000  1.0000  0.0000  0.0000  0.0000  0.0000  0.0000  0.0000  0.0000  0.0000      0.0000  0.0000  0.0000  0.0000  0.0000  0.0000  0.0000  0.0000  0.0000  0.0000
  o =  1.1008  v =  0.0000  0.0000  1.0000  0.0000  0.0000  0.0000  0.0000  0.0000  0.0000  0.0000      0.0000  0.0000  0.0000  0.0000  0.0000  0.0000  0.0000  0.0000  0.0000  0.0000
  o =  1.1008  v =  0.0000  0.0000  0.0000  1.0000  0.0000  0.0000  0.0000  0.0000  0.0000  0.0000      0.0000  0.0000  0.0000  0.0000  0.0000  0.0000  0.0000  0.0000  0.0000  0.0000
  o =  1.1008  v =  0.0000  0.0000  0.0000  0.0000  1.0000  0.0000  0.0000  0.0000  0.0000  0.0000      0.0000  0.0000  0.0000  0.0000  0.0000  0.0000  0.0000  0.0000  0.0000  0.0000
atom =  10  type =  3  l = 2
 
 onsite density matrix
 
spin component  1
 
  1.1008  0.0000  0.0000  0.0000  0.0000
  0.0000  1.1008  0.0000  0.0000  0.0000
  0.0000  0.0000  1.1008  0.0000  0.0000
  0.0000  0.0000  0.0000  1.1008  0.0000
  0.0000  0.0000  0.0000  0.0000  1.1008
 
spin component  2
 
  0.5927  0.0000  0.0000  0.0000  0.0000
  0.0000  0.5927  0.0000  0.0000  0.0000
  0.0000  0.0000  0.5927  0.0000  0.0000
  0.0000  0.0000  0.0000  0.5927  0.0000
  0.0000  0.0000  0.0000  0.0000  0.5927
 
 occupancies and eigenvectors
 
  o =  0.5927  v =  0.0000  0.0000  0.0000  0.0000  0.0000  1.0000  0.0000  0.0000  0.0000  0.0000      0.0000  0.0000  0.0000  0.0000  0.0000  0.0000  0.0000  0.0000  0.0000  0.0000
  o =  0.5927  v =  0.0000  0.0000  0.0000  0.0000  0.0000  0.0000  1.0000  0.0000  0.0000  0.0000      0.0000  0.0000  0.0000  0.0000  0.0000  0.0000  0.0000  0.0000  0.0000  0.0000
  o =  0.5927  v =  0.0000  0.0000  0.0000  0.0000  0.0000  0.0000  0.0000  1.0000  0.0000  0.0000      0.0000  0.0000  0.0000  0.0000  0.0000  0.0000  0.0000  0.0000  0.0000  0.0000
  o =  0.5927  v =  0.0000  0.0000  0.0000  0.0000  0.0000  0.0000  0.0000  0.0000  1.0000  0.0000      0.0000  0.0000  0.0000  0.0000  0.0000  0.0000  0.0000  0.0000  0.0000  0.0000
  o =  0.5927  v =  0.0000  0.0000  0.0000  0.0000  0.0000  0.0000  0.0000  0.0000  0.0000  1.0000      0.0000  0.0000  0.0000  0.0000  0.0000  0.0000  0.0000  0.0000  0.0000  0.0000
  o =  1.1008  v =  1.0000  0.0000  0.0000  0.0000  0.0000  0.0000  0.0000  0.0000  0.0000  0.0000      0.0000  0.0000  0.0000  0.0000  0.0000  0.0000  0.0000  0.0000  0.0000  0.0000
  o =  1.1008  v =  0.0000  1.0000  0.0000  0.0000  0.0000  0.0000  0.0000  0.0000  0.0000  0.0000      0.0000  0.0000  0.0000  0.0000  0.0000  0.0000  0.0000  0.0000  0.0000  0.0000
  o =  1.1008  v =  0.0000  0.0000  1.0000  0.0000  0.0000  0.0000  0.0000  0.0000  0.0000  0.0000      0.0000  0.0000  0.0000  0.0000  0.0000  0.0000  0.0000  0.0000  0.0000  0.0000
  o =  1.1008  v =  0.0000  0.0000  0.0000  1.0000  0.0000  0.0000  0.0000  0.0000  0.0000  0.0000      0.0000  0.0000  0.0000  0.0000  0.0000  0.0000  0.0000  0.0000  0.0000  0.0000
  o =  1.1008  v =  0.0000  0.0000  0.0000  0.0000  1.0000  0.0000  0.0000  0.0000  0.0000  0.0000      0.0000  0.0000  0.0000  0.0000  0.0000  0.0000  0.0000  0.0000  0.0000  0.0000
atom =  11  type =  4  l = 0
 
 onsite density matrix
 
spin component  1
 
  0.8190
 
spin component  2
 
  0.8190
 
 occupancies and eigenvectors
 
  o =  0.8190  v =  1.0000  0.0000      0.0000  0.0000
  o =  0.8190  v =  0.0000  1.0000      0.0000  0.0000
atom =  12  type =  4  l = 0
 
 onsite density matrix
 
spin component  1
 
  0.8190
 
spin component  2
 
  0.8190
 
 occupancies and eigenvectors
 
  o =  0.8190  v =  1.0000  0.0000      0.0000  0.0000
  o =  0.8190  v =  0.0000  1.0000      0.0000  0.0000
atom =  13  type =  4  l = 0
 
 onsite density matrix
 
spin component  1
 
  0.8190
 
spin component  2
 
  0.8190
 
 occupancies and eigenvectors
 
  o =  0.8190  v =  1.0000  0.0000      0.0000  0.0000
  o =  0.8190  v =  0.0000  1.0000      0.0000  0.0000
atom =  14  type =  4  l = 0
 
 onsite density matrix
 
spin component  1
 
  0.8190
 
spin component  2
 
  0.8190
 
 occupancies and eigenvectors
 
  o =  0.8190  v =  1.0000  0.0000      0.0000  0.0000
  o =  0.8190  v =  0.0000  1.0000      0.0000  0.0000
atom =  15  type =  4  l = 0
 
 onsite density matrix
 
spin component  1
 
  0.8190
 
spin component  2
 
  0.8190
 
 occupancies and eigenvectors
 
  o =  0.8190  v =  1.0000  0.0000      0.0000  0.0000
  o =  0.8190  v =  0.0000  1.0000      0.0000  0.0000
atom =  16  type =  4  l = 0
 
 onsite density matrix
 
spin component  1
 
  0.8190
 
spin component  2
 
  0.8190
 
 occupancies and eigenvectors
 
  o =  0.8190  v =  1.0000  0.0000      0.0000  0.0000
  o =  0.8190  v =  0.0000  1.0000      0.0000  0.0000
atom =  17  type =  4  l = 0
 
 onsite density matrix
 
spin component  1
 
  0.8190
 
spin component  2
 
  0.8190
 
 occupancies and eigenvectors
 
  o =  0.8190  v =  1.0000  0.0000      0.0000  0.0000
  o =  0.8190  v =  0.0000  1.0000      0.0000  0.0000
atom =  18  type =  4  l = 0
 
 onsite density matrix
 
spin component  1
 
  0.8190
 
spin component  2
 
  0.8190
 
 occupancies and eigenvectors
 
  o =  0.8190  v =  1.0000  0.0000      0.0000  0.0000
  o =  0.8190  v =  0.0000  1.0000      0.0000  0.0000
atom =  19  type =  4  l = 0
 
 onsite density matrix
 
spin component  1
 
  0.8190
 
spin component  2
 
  0.8190
 
 occupancies and eigenvectors
 
  o =  0.8190  v =  1.0000  0.0000      0.0000  0.0000
  o =  0.8190  v =  0.0000  1.0000      0.0000  0.0000
atom =  20  type =  4  l = 0
 
 onsite density matrix
 
spin component  1
 
  0.8190
 
spin component  2
 
  0.8190
 
 occupancies and eigenvectors
 
  o =  0.8190  v =  1.0000  0.0000      0.0000  0.0000
  o =  0.8190  v =  0.0000  1.0000      0.0000  0.0000
atom =  21  type =  4  l = 0
 
 onsite density matrix
 
spin component  1
 
  0.8190
 
spin component  2
 
  0.8190
 
 occupancies and eigenvectors
 
  o =  0.8190  v =  1.0000  0.0000      0.0000  0.0000
  o =  0.8190  v =  0.0000  1.0000      0.0000  0.0000
atom =  22  type =  4  l = 0
 
 onsite density matrix
 
spin component  1
 
  0.8190
 
spin component  2
 
  0.8190
 
 occupancies and eigenvectors
 
  o =  0.8190  v =  1.0000  0.0000      0.0000  0.0000
  o =  0.8190  v =  0.0000  1.0000      0.0000  0.0000
atom =  23  type =  4  l = 0
 
 onsite density matrix
 
spin component  1
 
  0.8190
 
spin component  2
 
  0.8190
 
 occupancies and eigenvectors
 
  o =  0.8190  v =  1.0000  0.0000      0.0000  0.0000
  o =  0.8190  v =  0.0000  1.0000      0.0000  0.0000
atom =  24  type =  4  l = 0
 
 onsite density matrix
 
spin component  1
 
  0.8190
 
spin component  2
 
  0.8190
 
 occupancies and eigenvectors
 
  o =  0.8190  v =  1.0000  0.0000      0.0000  0.0000
  o =  0.8190  v =  0.0000  1.0000      0.0000  0.0000
atom =  25  type =  4  l = 0
 
 onsite density matrix
 
spin component  1
 
  0.8190
 
spin component  2
 
  0.8190
 
 occupancies and eigenvectors
 
  o =  0.8190  v =  1.0000  0.0000      0.0000  0.0000
  o =  0.8190  v =  0.0000  1.0000      0.0000  0.0000
     EDDAV:  cpu time    4.7275: real time    4.7614
 BZINTS: Fermi energy: 31.232657;189.000000 electrons
         Band energy:2801.248779;  BLOECHL correction: -0.272216
       DOS:  cpu time    0.0415: real time    0.0418
    --------------------------------------------
      LOOP:  cpu time    4.8537: real time    4.8902

 eigenvalue-minimisations  :  9874
 total energy-change (2. order) : 0.2931702E+04  (-0.6720711E+04)
 number of electron     189.0000000 magnetization      17.0000000
 augmentation part      189.0000000 magnetization      17.0000000

 Free energy of the ion-electron system (eV)
  ---------------------------------------------------
  alpha Z        PSCENC =       823.89229436
  Ewald energy   TEWEN  =    -13163.19858316
  -Hartree energ DENC   =     -2955.08783370
  -exchange      EXHF   =         0.00000000
  -V(xc)+E(xc)   XCENC  =       650.25073283
  PAW double counting   =     12113.24528192   -12220.41125290
  entropy T*S    EENTRO =         0.00000000
  eigenvalues    EBANDS =      2801.24877942
  atomic energy  EATOM  =     14881.76277809
  Solvation  Ediel_sol  =         0.00000000
  ---------------------------------------------------
  free energy    TOTEN  =      2931.70219687 eV

  energy without entropy =     2931.70219687  energy(sigma->0) =     2931.70219687


--------------------------------------------------------------------------------------------------------




--------------------------------------- Iteration      1(   2)  ---------------------------------------


     EDDAV:  cpu time    4.9580: real time    4.9775
 BZINTS: Fermi energy: 16.358993;189.000000 electrons
         Band energy: 854.837728;  BLOECHL correction: -0.058328
       DOS:  cpu time    0.0450: real time    0.0451
    --------------------------------------------
      LOOP:  cpu time    5.0030: real time    5.0226

 eigenvalue-minimisations  : 10360
 total energy-change (2. order) :-0.1946411E+04  (-0.1754640E+04)
 number of electron     189.0000000 magnetization      17.0000000
 augmentation part      189.0000000 magnetization      17.0000000

 Free energy of the ion-electron system (eV)
  ---------------------------------------------------
  alpha Z        PSCENC =       823.89229436
  Ewald energy   TEWEN  =    -13163.19858316
  -Hartree energ DENC   =     -2955.08783370
  -exchange      EXHF   =         0.00000000
  -V(xc)+E(xc)   XCENC  =       650.25073283
  PAW double counting   =     12113.24528192   -12220.41125290
  entropy T*S    EENTRO =         0.00000000
  eigenvalues    EBANDS =       854.83772769
  atomic energy  EATOM  =     14881.76277809
  Solvation  Ediel_sol  =         0.00000000
  ---------------------------------------------------
  free energy    TOTEN  =       985.29114514 eV

  energy without entropy =      985.29114514  energy(sigma->0) =      985.29114514


--------------------------------------------------------------------------------------------------------




--------------------------------------- Iteration      1(   3)  ---------------------------------------


     EDDAV:  cpu time    4.9650: real time    4.9869
 BZINTS: Fermi energy: 12.295430;189.000000 electrons
         Band energy:  63.244050;  BLOECHL correction: -0.017492
       DOS:  cpu time    0.0447: real time    0.0448
    --------------------------------------------
      LOOP:  cpu time    5.0098: real time    5.0318

 eigenvalue-minimisations  : 10400
 total energy-change (2. order) :-0.7915937E+03  (-0.7139181E+03)
 number of electron     189.0000000 magnetization      17.0000000
 augmentation part      189.0000000 magnetization      17.0000000

 Free energy of the ion-electron system (eV)
  ---------------------------------------------------
  alpha Z        PSCENC =       823.89229436
  Ewald energy   TEWEN  =    -13163.19858316
  -Hartree energ DENC   =     -2955.08783370
  -exchange      EXHF   =         0.00000000
  -V(xc)+E(xc)   XCENC  =       650.25073283
  PAW double counting   =     12113.24528192   -12220.41125290
  entropy T*S    EENTRO =         0.00000000
  eigenvalues    EBANDS =        63.24405004
  atomic energy  EATOM  =     14881.76277809
  Solvation  Ediel_sol  =         0.00000000
  ---------------------------------------------------
  free energy    TOTEN  =       193.69746749 eV

  energy without entropy =      193.69746749  energy(sigma->0) =      193.69746749


--------------------------------------------------------------------------------------------------------




--------------------------------------- Iteration      1(   4)  ---------------------------------------


     EDDAV:  cpu time    6.7564: real time    6.7789
 BZINTS: Fermi energy: 11.676096;189.000000 electrons
         Band energy:-270.705213;  BLOECHL correction: -0.007832
       DOS:  cpu time    0.0411: real time    0.0412
    --------------------------------------------
      LOOP:  cpu time    6.7975: real time    6.8201

 eigenvalue-minimisations  : 15102
 total energy-change (2. order) :-0.3339493E+03  (-0.3165655E+03)
 number of electron     189.0000000 magnetization      17.0000000
 augmentation part      189.0000000 magnetization      17.0000000

 Free energy of the ion-electron system (eV)
  ---------------------------------------------------
  alpha Z        PSCENC =       823.89229436
  Ewald energy   TEWEN  =    -13163.19858316
  -Hartree energ DENC   =     -2955.08783370
  -exchange      EXHF   =         0.00000000
  -V(xc)+E(xc)   XCENC  =       650.25073283
  PAW double counting   =     12113.24528192   -12220.41125290
  entropy T*S    EENTRO =         0.00000000
  eigenvalues    EBANDS =      -270.70521347
  atomic energy  EATOM  =     14881.76277809
  Solvation  Ediel_sol  =         0.00000000
  ---------------------------------------------------
  free energy    TOTEN  =      -140.25179601 eV

  energy without entropy =     -140.25179601  energy(sigma->0) =     -140.25179601


--------------------------------------------------------------------------------------------------------




--------------------------------------- Iteration      1(   5)  ---------------------------------------


     EDDAV:  cpu time    7.5200: real time    7.5513
 BZINTS: Fermi energy: 11.207686;189.000000 electrons
         Band energy:-336.867738;  BLOECHL correction: -0.016242
       DOS:  cpu time    0.0457: real time    0.0460
    CHARGE:  cpu time    0.2088: real time    0.2099
    MIXING:  cpu time    0.0030: real time    0.0032
    --------------------------------------------
      LOOP:  cpu time    7.7775: real time    7.8104

 eigenvalue-minimisations  : 17118
 total energy-change (2. order) :-0.6616252E+02  (-0.6400098E+02)
 number of electron     189.0000003 magnetization      14.6934825
 augmentation part       24.9327705 magnetization      10.9821402

 Broyden mixing:
  rms(total) = 0.70471E+01    rms(broyden)= 0.70467E+01
  rms(prec ) = 0.85926E+01
  weight for this iteration     100.00

 Free energy of the ion-electron system (eV)
  ---------------------------------------------------
  alpha Z        PSCENC =       823.89229436
  Ewald energy   TEWEN  =    -13163.19858316
  -Hartree energ DENC   =     -2955.08783370
  -exchange      EXHF   =         0.00000000
  -V(xc)+E(xc)   XCENC  =       650.25073283
  PAW double counting   =     12113.24528192   -12220.41125290
  entropy T*S    EENTRO =         0.00000000
  eigenvalues    EBANDS =      -336.86773822
  atomic energy  EATOM  =     14881.76277809
  Solvation  Ediel_sol  =         0.00000000
  ---------------------------------------------------
  free energy    TOTEN  =      -206.41432077 eV

  energy without entropy =     -206.41432077  energy(sigma->0) =     -206.41432077


--------------------------------------------------------------------------------------------------------




--------------------------------------- Iteration      1(   6)  ---------------------------------------


    POTLOK:  cpu time    0.0661: real time    0.0674
    SETDIJ:  cpu time    0.0118: real time    0.0119
atom =   1  type =  1  l = 0
 
 onsite density matrix
 
spin component  1
 
  1.0564
 
spin component  2
 
  1.0564
 
 occupancies and eigenvectors
 
  o =  1.0564  v =  1.0000  0.0000      0.0000  0.0000
  o =  1.0564  v =  0.0000  1.0000      0.0000  0.0000
atom =   2  type =  1  l = 0
 
 onsite density matrix
 
spin component  1
 
  1.0564
 
spin component  2
 
  1.0564
 
 occupancies and eigenvectors
 
  o =  1.0564  v =  1.0000  0.0000      0.0000  0.0000
  o =  1.0564  v =  0.0000  1.0000      0.0000  0.0000
atom =   3  type =  1  l = 0
 
 onsite density matrix
 
spin component  1
 
  1.0571
 
spin component  2
 
  1.0570
 
 occupancies and eigenvectors
 
  o =  1.0570  v =  0.0000  1.0000      0.0000  0.0000
  o =  1.0571  v =  1.0000  0.0000      0.0000  0.0000
atom =   4  type =  1  l = 0
 
 onsite density matrix
 
spin component  1
 
  1.0562
 
spin component  2
 
  1.0564
 
 occupancies and eigenvectors
 
  o =  1.0562  v =  1.0000  0.0000      0.0000  0.0000
  o =  1.0564  v =  0.0000  1.0000      0.0000  0.0000
atom =   5  type =  1  l = 0
 
 onsite density matrix
 
spin component  1
 
  1.0571
 
spin component  2
 
  1.0570
 
 occupancies and eigenvectors
 
  o =  1.0570  v =  0.0000  1.0000      0.0000  0.0000
  o =  1.0571  v =  1.0000  0.0000      0.0000  0.0000
atom =   6  type =  2  l = 2
 
 onsite density matrix
 
spin component  1
 
  0.9573  0.0014  0.0030 -0.0014  0.0000
  0.0014  0.9570  0.0040 -0.0033 -0.0023
  0.0030  0.0040  0.3320 -0.0040  0.0000
 -0.0014 -0.0033 -0.0040  0.9570 -0.0023
  0.0000 -0.0023  0.0000 -0.0023  0.3427
 
spin component  2
 
  0.0369 -0.0010 -0.0020  0.0010 -0.0000
 -0.0010  0.0344 -0.0023  0.0021  0.0014
 -0.0020 -0.0023  0.4644  0.0023  0.0000
  0.0010  0.0021  0.0023  0.0344  0.0014
 -0.0000  0.0014  0.0000  0.0014  0.4599
 
 occupancies and eigenvectors
 
  o =  0.0318  v =  0.0000  0.0000  0.0000  0.0000  0.0000  0.2729  0.6802  0.0086 -0.6802 -0.0000      0.0000  0.0000  0.0000  0.0000  0.0000  0.0000  0.0000  0.0000  0.0000  0.0000
  o =  0.0365  v =  0.0000  0.0000  0.0000  0.0000  0.0000 -0.0000  0.7071 -0.0000  0.7071 -0.0047      0.0000  0.0000  0.0000  0.0000  0.0000  0.0000  0.0000  0.0000  0.0000  0.0000
  o =  0.0373  v =  0.0000  0.0000  0.0000  0.0000  0.0000  0.9620 -0.1930  0.0023  0.1930 -0.0000      0.0000  0.0000  0.0000  0.0000  0.0000  0.0000  0.0000  0.0000  0.0000  0.0000
  o =  0.3319  v = -0.0047 -0.0064  0.9999  0.0064 -0.0000  0.0000  0.0000  0.0000  0.0000  0.0000      0.0000  0.0000  0.0000  0.0000  0.0000  0.0000  0.0000  0.0000  0.0000  0.0000
  o =  0.3427  v = -0.0000  0.0038  0.0000  0.0038  1.0000  0.0000  0.0000  0.0000  0.0000  0.0000      0.0000  0.0000  0.0000  0.0000  0.0000  0.0000  0.0000  0.0000  0.0000  0.0000
  o =  0.4599  v =  0.0000  0.0000  0.0000  0.0000  0.0000  0.0000  0.0033 -0.0000  0.0033  1.0000      0.0000  0.0000  0.0000  0.0000  0.0000  0.0000  0.0000  0.0000  0.0000  0.0000
  o =  0.4645  v =  0.0000  0.0000  0.0000  0.0000  0.0000 -0.0046 -0.0054  1.0000  0.0054  0.0000      0.0000  0.0000  0.0000  0.0000  0.0000  0.0000  0.0000  0.0000  0.0000  0.0000
  o =  0.9537  v = -0.0000 -0.7071  0.0000 -0.7071  0.0053  0.0000  0.0000  0.0000  0.0000  0.0000      0.0000  0.0000  0.0000  0.0000  0.0000  0.0000  0.0000  0.0000  0.0000  0.0000
  o =  0.9563  v =  0.8912 -0.3208  0.0001  0.3208  0.0000  0.0000  0.0000  0.0000  0.0000  0.0000      0.0000  0.0000  0.0000  0.0000  0.0000  0.0000  0.0000  0.0000  0.0000  0.0000
  o =  0.9614  v = -0.4536 -0.6301 -0.0102  0.6301  0.0000  0.0000  0.0000  0.0000  0.0000  0.0000      0.0000  0.0000  0.0000  0.0000  0.0000  0.0000  0.0000  0.0000  0.0000  0.0000
atom =   7  type =  2  l = 2
 
 onsite density matrix
 
spin component  1
 
  0.9573  0.0014  0.0030 -0.0014  0.0000
  0.0014  0.9570  0.0040 -0.0033 -0.0023
  0.0030  0.0040  0.3320 -0.0040  0.0000
 -0.0014 -0.0033 -0.0040  0.9570 -0.0023
  0.0000 -0.0023  0.0000 -0.0023  0.3427
 
spin component  2
 
  0.0369 -0.0010 -0.0020  0.0010 -0.0000
 -0.0010  0.0344 -0.0023  0.0021  0.0014
 -0.0020 -0.0023  0.4644  0.0023  0.0000
  0.0010  0.0021  0.0023  0.0344  0.0014
 -0.0000  0.0014  0.0000  0.0014  0.4599
 
 occupancies and eigenvectors
 
  o =  0.0318  v =  0.0000  0.0000  0.0000  0.0000  0.0000  0.2729  0.6802  0.0086 -0.6802  0.0000      0.0000  0.0000  0.0000  0.0000  0.0000  0.0000  0.0000  0.0000  0.0000  0.0000
  o =  0.0365  v =  0.0000  0.0000  0.0000  0.0000  0.0000 -0.0000  0.7071  0.0000  0.7071 -0.0047      0.0000  0.0000  0.0000  0.0000  0.0000  0.0000  0.0000  0.0000  0.0000  0.0000
  o =  0.0373  v =  0.0000  0.0000  0.0000  0.0000  0.0000  0.9620 -0.1930  0.0023  0.1930 -0.0000      0.0000  0.0000  0.0000  0.0000  0.0000  0.0000  0.0000  0.0000  0.0000  0.0000
  o =  0.3319  v =  0.0047  0.0064 -0.9999 -0.0064  0.0000  0.0000  0.0000  0.0000  0.0000  0.0000      0.0000  0.0000  0.0000  0.0000  0.0000  0.0000  0.0000  0.0000  0.0000  0.0000
  o =  0.3427  v = -0.0000  0.0038  0.0000  0.0038  1.0000  0.0000  0.0000  0.0000  0.0000  0.0000      0.0000  0.0000  0.0000  0.0000  0.0000  0.0000  0.0000  0.0000  0.0000  0.0000
  o =  0.4599  v =  0.0000  0.0000  0.0000  0.0000  0.0000 -0.0000  0.0033 -0.0000  0.0033  1.0000      0.0000  0.0000  0.0000  0.0000  0.0000  0.0000  0.0000  0.0000  0.0000  0.0000
  o =  0.4645  v =  0.0000  0.0000  0.0000  0.0000  0.0000 -0.0046 -0.0054  1.0000  0.0054  0.0000      0.0000  0.0000  0.0000  0.0000  0.0000  0.0000  0.0000  0.0000  0.0000  0.0000
  o =  0.9537  v = -0.0000 -0.7071  0.0000 -0.7071  0.0053  0.0000  0.0000  0.0000  0.0000  0.0000      0.0000  0.0000  0.0000  0.0000  0.0000  0.0000  0.0000  0.0000  0.0000  0.0000
  o =  0.9563  v = -0.8912  0.3208 -0.0001 -0.3208 -0.0000  0.0000  0.0000  0.0000  0.0000  0.0000      0.0000  0.0000  0.0000  0.0000  0.0000  0.0000  0.0000  0.0000  0.0000  0.0000
  o =  0.9614  v =  0.4536  0.6301  0.0102 -0.6301 -0.0000  0.0000  0.0000  0.0000  0.0000  0.0000      0.0000  0.0000  0.0000  0.0000  0.0000  0.0000  0.0000  0.0000  0.0000  0.0000
atom =   8  type =  3  l = 2
 
 onsite density matrix
 
spin component  1
 
  0.9397  0.0008  0.0042 -0.0008 -0.0000
  0.0008  0.9569  0.0011 -0.0019  0.0001
  0.0042  0.0011  1.3138 -0.0011  0.0000
 -0.0008 -0.0019 -0.0011  0.9569  0.0001
 -0.0000  0.0001  0.0000  0.0001  1.3165
 
spin component  2
 
  0.7372 -0.0014 -0.0067  0.0014  0.0000
 -0.0014  0.7080 -0.0016  0.0032 -0.0004
 -0.0067 -0.0016  0.1889  0.0016 -0.0000
  0.0014  0.0032  0.0016  0.7080 -0.0004
  0.0000 -0.0004 -0.0000 -0.0004  0.1897
 
 occupancies and eigenvectors
 
  o =  0.1888  v =  0.0000  0.0000  0.0000  0.0000  0.0000 -0.0122 -0.0032 -0.9999  0.0032 -0.0000      0.0000  0.0000  0.0000  0.0000  0.0000  0.0000  0.0000  0.0000  0.0000  0.0000
  o =  0.1897  v =  0.0000  0.0000  0.0000  0.0000  0.0000 -0.0000  0.0007 -0.0000  0.0007  1.0000      0.0000  0.0000  0.0000  0.0000  0.0000  0.0000  0.0000  0.0000  0.0000  0.0000
  o =  0.7047  v =  0.0000  0.0000  0.0000  0.0000  0.0000  0.0587  0.7059 -0.0053 -0.7059  0.0000      0.0000  0.0000  0.0000  0.0000  0.0000  0.0000  0.0000  0.0000  0.0000  0.0000
  o =  0.7112  v =  0.0000  0.0000  0.0000  0.0000  0.0000 -0.0000 -0.7071 -0.0000 -0.7071  0.0010      0.0000  0.0000  0.0000  0.0000  0.0000  0.0000  0.0000  0.0000  0.0000  0.0000
[...]
 -0.000  -0.000   0.000   0.000   0.000  -0.000  -0.000  -0.000  -0.000  -0.000  -0.000  -0.000  -0.000  -0.000  -0.000   0.000
  0.000   0.000  -0.000   0.000  -0.000   0.000  -0.000   0.000  -0.000  -0.000  -0.000   0.000   0.000   0.000   0.000   0.000
 -0.000   0.000   0.000  -0.000  -0.000  -0.000   0.000   0.000   0.000  -0.000   0.000   0.000   0.000  -0.000  -0.000  -0.000
 -0.000  -0.000  -0.000  -0.000  -0.000   0.000   0.000   0.000   0.000   0.000   0.000  -0.000   0.000  -0.000  -0.000  -0.000
  0.000   0.002   0.000  -0.000  -0.000  -0.000   0.000   0.000   0.001   0.004   0.009  -0.004   0.000   0.000  -0.002  -0.003
 -0.000  -0.001  -0.000   0.000  -0.000  -0.000  -0.000   0.000   0.004   0.002   0.001   0.009  -0.003  -0.002  -0.000  -0.001
  0.000   0.001   0.000  -0.000  -0.000  -0.000   0.000   0.000   0.009   0.001   0.020  -0.001   0.000  -0.003  -0.001  -0.008
  0.000   0.001  -0.000  -0.000  -0.000   0.000   0.000  -0.000  -0.004   0.009  -0.001   0.002  -0.003   0.002  -0.004   0.001
  0.000   0.000  -0.000  -0.000  -0.000   0.000   0.000   0.000   0.000  -0.003   0.000  -0.003   0.019  -0.000   0.001  -0.000
 -0.000  -0.001   0.000  -0.000  -0.000   0.000  -0.000  -0.000   0.000  -0.002  -0.003   0.002  -0.000  -0.000   0.001   0.001
  0.000   0.001   0.000   0.000  -0.000   0.000  -0.000  -0.000  -0.002  -0.000  -0.001  -0.004   0.001   0.001  -0.000   0.000
 -0.000  -0.000  -0.000   0.000   0.000   0.000  -0.000  -0.000  -0.003  -0.001  -0.008   0.001  -0.000   0.001   0.000   0.003
 -0.000  -0.001  -0.000  -0.000   0.000  -0.000   0.000   0.000   0.002  -0.004   0.001  -0.000   0.001  -0.001   0.002  -0.000
 -0.000   0.000  -0.000   0.000  -0.000  -0.000  -0.000  -0.000  -0.000   0.001  -0.000   0.001  -0.008   0.000  -0.000   0.000
 -0.000  -0.001   0.000   0.000   0.000   0.000   0.000  -0.000   0.000   0.001  -0.000  -0.000   0.000  -0.000  -0.000   0.000
  0.000  -0.002   0.000   0.000  -0.000  -0.000  -0.001   0.000   0.002   0.002  -0.000  -0.002   0.000  -0.001  -0.001   0.000
 -0.000   0.000  -0.000  -0.000  -0.000   0.000  -0.000  -0.000   0.001   0.001   0.001  -0.000  -0.000  -0.000  -0.000  -0.000
 -0.000  -0.001   0.000  -0.000  -0.000  -0.000  -0.000   0.000  -0.000   0.001  -0.001  -0.001  -0.000   0.000  -0.000   0.000
  0.000  -0.000  -0.000   0.000  -0.000  -0.000   0.000   0.000  -0.001  -0.000  -0.001   0.001  -0.000   0.000   0.000   0.000
  0.000  -0.000  -0.000  -0.000  -0.000   0.000  -0.000   0.000   0.000  -0.001  -0.000  -0.001  -0.002  -0.000   0.000   0.000
 -0.000  -0.001  -0.000   0.000  -0.000   0.000   0.000  -0.000   0.000   0.000  -0.000  -0.001  -0.000  -0.000  -0.000   0.000
  0.000   0.001   0.000   0.000  -0.000  -0.001  -0.000   0.000  -0.001  -0.002   0.001  -0.000  -0.001   0.000   0.001  -0.000
 -0.000   0.003  -0.000  -0.001   0.000   0.001   0.001  -0.001  -0.003  -0.003   0.001   0.003  -0.000   0.001   0.001  -0.000
  0.000  -0.001   0.000   0.000  -0.000  -0.000   0.000   0.001  -0.001  -0.001  -0.001   0.001   0.000   0.000   0.000   0.000
  0.000   0.001  -0.000  -0.000   0.000   0.000   0.001  -0.000   0.001  -0.002   0.002   0.002   0.000  -0.000   0.001  -0.001
 -0.000   0.001  -0.000  -0.000   0.000   0.001  -0.000  -0.000   0.001   0.001   0.001  -0.001   0.000  -0.000  -0.000  -0.000
 -0.000   0.000   0.000  -0.000   0.000  -0.000   0.000  -0.000  -0.000   0.001   0.000   0.001   0.003   0.000  -0.000  -0.000
  0.000   0.001   0.000   0.000  -0.000  -0.000  -0.000   0.001  -0.001   0.000   0.001   0.002   0.001   0.000   0.000  -0.000


------------------------ aborting loop because EDIFF is reached ----------------------------------------


 


 total charge     
 
# of ion       s       p       d       f       tot
--------------------------------------------------
    1        2.000   5.700   0.493   0.192   8.384
    2        2.000   5.700   0.493   0.192   8.384
    3        2.000   5.699   0.493   0.192   8.383
    4        1.999   5.700   0.490   0.192   8.381
    5        2.000   5.699   0.493   0.192   8.384
    6        0.358   0.572   4.866   0.000   5.795
    7        0.358   0.572   4.865   0.000   5.795
    8        0.405   0.590   8.320   0.000   9.315
    9        0.404   0.598   8.318   0.000   9.320
   10        0.405   0.590   8.321   0.000   9.315
   11        1.561   3.470   0.000   0.000   5.031
   12        1.563   3.454   0.000   0.000   5.018
   13        1.559   3.444   0.000   0.000   5.003
   14        1.559   3.444   0.000   0.000   5.003
   15        1.563   3.454   0.000   0.000   5.018
   16        1.562   3.458   0.000   0.000   5.019
   17        1.562   3.455   0.000   0.000   5.018
   18        1.560   3.446   0.000   0.000   5.007
   19        1.562   3.455   0.000   0.000   5.018
   20        1.562   3.458   0.000   0.000   5.019
   21        1.562   3.455   0.000   0.000   5.017
   22        1.562   3.457   0.000   0.000   5.019
   23        1.562   3.457   0.000   0.000   5.019
   24        1.562   3.455   0.000   0.000   5.017
   25        1.560   3.438   0.000   0.000   4.998
--------------------------------------------------
tot         35.351  83.220  37.152   0.958 156.681

 


 magnetization (x)
 
# of ion       s       p       d       f       tot
--------------------------------------------------
    1        0.000   0.001   0.007   0.003   0.011
    2        0.000   0.001   0.007   0.003   0.011
    3        0.001   0.001   0.008   0.003   0.012
    4        0.001   0.001   0.008   0.003   0.013
    5        0.001   0.001   0.008   0.003   0.012
    6        0.024   0.031   3.215   0.000   3.270
    7        0.024   0.031   3.214   0.000   3.270
    8        0.012   0.003   1.576   0.000   1.591
    9        0.009   0.004   1.553   0.000   1.566
   10        0.012   0.003   1.576   0.000   1.591
   11        0.001  -0.018   0.000   0.000  -0.017
   12        0.005  -0.044   0.000   0.000  -0.039
   13        0.006  -0.047   0.000   0.000  -0.041
   14        0.006  -0.047   0.000   0.000  -0.041
   15        0.005  -0.044   0.000   0.000  -0.039
   16        0.005  -0.023   0.000   0.000  -0.019
   17        0.005  -0.024   0.000   0.000  -0.019
   18        0.006  -0.054   0.000   0.000  -0.048
   19        0.005  -0.024   0.000   0.000  -0.019
   20        0.005  -0.023   0.000   0.000  -0.019
   21        0.005  -0.025   0.000   0.000  -0.020
   22        0.005  -0.024   0.000   0.000  -0.020
   23        0.005  -0.024   0.000   0.000  -0.020
   24        0.005  -0.025   0.000   0.000  -0.020
   25        0.006  -0.062   0.000   0.000  -0.056
--------------------------------------------------
tot          0.158  -0.434  11.171   0.016  10.911

 
    CHARGE:  cpu time    0.2070: real time    0.2080
    FORLOC:  cpu time    0.0086: real time    0.0086
    FORNL :  cpu time    1.3139: real time    1.3212
    STRESS:  cpu time    3.9543: real time    3.9734
    FORCOR:  cpu time    0.0739: real time    0.0741
    FORHAR:  cpu time    0.0149: real time    0.0149
    MIXING:  cpu time    0.0048: real time    0.0049
    OFIELD:  cpu time    0.0001: real time    0.0001

  FORCE on cell =-STRESS in cart. coord.  units (eV):
  Direction    XX          YY          ZZ          XY          YZ          ZX
  --------------------------------------------------------------------------------------
  Alpha Z   823.89229   823.89229   823.89229
  Ewald   -4395.16018 -4395.16018 -4372.91040     7.70105    -6.12837     6.12837
  Hartree   993.38817   993.38819  1010.93440     6.34970    -5.61300     5.61299
  E(xc)    -882.23613  -882.23612  -882.10815    -0.00387    -0.00256     0.00254
  Local    -586.86923  -586.86899  -624.24466   -13.47577    11.87778   -11.87828
  n-local   353.22055   353.18125   353.86188     0.19073     0.04392     0.04491
  augment   480.95379   480.95312   480.16514    -0.00891    -0.00368     0.00438
  Kinetic  3212.61646  3213.23522  3210.58863    -0.66480    -0.34381    -0.01558
  Fock        0.00000     0.00000     0.00000     0.00000     0.00000     0.00000
  -------------------------------------------------------------------------------------
  Total       0.09526     0.09526     0.17915     0.08785    -0.03515     0.03515
  in kB       0.52591     0.52591     0.98904     0.48498    -0.19405     0.19405
  external pressure =        0.68 kB  Pullay stress =        0.00 kB


 VOLUME and BASIS-vectors are now :
 -----------------------------------------------------------------------------
  energy-cutoff  :      520.00
  volume of cell :      290.21
      direct lattice vectors                 reciprocal lattice vectors
    -3.868749391 -3.868749391  0.000000000    -0.155049693 -0.103431769 -0.051696109
    -3.877869323  3.877869323  3.872004489    -0.103163857  0.103163857  0.051623930
    -0.001852795  3.870602185 -7.738608632    -0.051617925  0.051617925 -0.103392218

  length of vectors
     5.471237858  6.713282337  8.652608178     0.193419301  0.154759791  0.126565284


 FORCES acting on ions
    electron-ion (+dipol)            ewald-force                    non-local-force                 convergence-correction
 -----------------------------------------------------------------------------------------------
   -.263E+02 0.263E+02 -.305E+02   0.261E+02 -.261E+02 0.302E+02   0.229E+00 -.229E+00 0.309E+00   -.310E-02 0.310E-02 -.496E-02
   0.263E+02 -.263E+02 0.305E+02   -.261E+02 0.261E+02 -.302E+02   -.229E+00 0.229E+00 -.309E+00   0.310E-02 -.310E-02 0.496E-02
   0.323E+02 -.323E+02 -.299E+02   -.318E+02 0.318E+02 0.296E+02   -.427E+00 0.427E+00 0.286E+00   0.338E-02 -.338E-02 -.504E-02
   0.242E-06 0.774E-05 -.241E-04   -.775E-11 0.600E-11 0.271E-10   -.559E-19 -.813E-19 0.000E+00   0.251E-05 0.364E-05 -.238E-05
   -.323E+02 0.323E+02 0.299E+02   0.318E+02 -.318E+02 -.296E+02   0.427E+00 -.427E+00 -.286E+00   -.338E-02 0.338E-02 0.503E-02
   0.634E+00 -.634E+00 -.200E+02   -.618E+00 0.618E+00 0.196E+02   -.122E-01 0.122E-01 0.440E+00   0.594E-03 -.594E-03 0.362E-03
   -.634E+00 0.634E+00 0.200E+02   0.618E+00 -.618E+00 -.196E+02   0.122E-01 -.122E-01 -.440E+00   -.593E-03 0.593E-03 -.362E-03
   0.302E+02 -.302E+02 -.177E+02   -.296E+02 0.296E+02 0.166E+02   -.609E+00 0.609E+00 0.111E+01   0.473E-02 -.473E-02 -.391E-03
   0.301E-04 0.661E-04 -.675E-06   0.196E-10 -.279E-10 0.366E-11   0.216E-19 0.136E-19 -.271E-19   0.347E-06 -.382E-06 0.505E-06
   -.302E+02 0.302E+02 0.177E+02   0.296E+02 -.296E+02 -.166E+02   0.609E+00 -.609E+00 -.111E+01   -.473E-02 0.473E-02 0.390E-03
   -.110E-04 -.384E-04 0.369E-05   -.115E-10 0.353E-11 0.901E-11   0.307E-19 0.108E-18 0.542E-19   0.183E-06 -.192E-06 0.527E-06
   0.117E+02 -.117E+02 -.369E+02   -.120E+02 0.120E+02 0.309E+02   0.354E+00 -.354E+00 0.596E+01   0.493E-03 -.494E-03 -.260E-01
   0.105E+02 -.105E+02 0.259E+00   -.107E+02 0.107E+02 0.702E+00   0.160E+00 -.160E+00 -.941E+00   0.905E-03 -.905E-03 0.533E-02
   -.105E+02 0.105E+02 -.259E+00   0.107E+02 -.107E+02 -.702E+00   -.160E+00 0.160E+00 0.941E+00   -.905E-03 0.905E-03 -.533E-02
   -.117E+02 0.117E+02 0.369E+02   0.120E+02 -.120E+02 -.309E+02   -.354E+00 0.354E+00 -.596E+01   -.494E-03 0.494E-03 0.260E-01
   0.996E+01 -.437E+02 -.160E+01   -.101E+02 0.392E+02 0.171E+01   0.127E+00 0.453E+01 -.141E+00   0.749E-03 -.244E-01 0.365E-03
   -.140E+01 -.391E+02 -.109E+02   0.167E+01 0.342E+02 0.112E+02   -.274E+00 0.496E+01 -.326E+00   0.134E-03 -.212E-01 0.970E-04
   -.171E-05 -.574E-04 0.201E-04   -.192E-10 0.371E-10 0.106E-10   0.866E-19 0.678E-19 0.271E-19   -.273E-06 0.360E-06 -.227E-06
   0.140E+01 0.391E+02 0.109E+02   -.167E+01 -.342E+02 -.112E+02   0.274E+00 -.496E+01 0.326E+00   -.134E-03 0.212E-01 -.965E-04
   -.996E+01 0.437E+02 0.160E+01   0.101E+02 -.392E+02 -.171E+01   -.127E+00 -.453E+01 0.141E+00   -.750E-03 0.244E-01 -.365E-03
   -.391E+02 -.140E+01 0.109E+02   0.342E+02 0.167E+01 -.112E+02   0.496E+01 -.274E+00 0.326E+00   -.212E-01 0.134E-03 -.965E-04
   -.437E+02 0.996E+01 0.160E+01   0.392E+02 -.101E+02 -.171E+01   0.453E+01 0.127E+00 0.141E+00   -.244E-01 0.750E-03 -.365E-03
   0.437E+02 -.996E+01 -.160E+01   -.392E+02 0.101E+02 0.171E+01   -.453E+01 -.127E+00 -.141E+00   0.244E-01 -.749E-03 0.365E-03
   0.391E+02 0.140E+01 -.109E+02   -.342E+02 -.167E+01 0.112E+02   -.496E+01 0.274E+00 -.326E+00   0.212E-01 -.134E-03 0.969E-04
   0.240E-04 -.485E-04 0.166E-04   -.714E-11 0.127E-10 0.156E-12   -.142E-18 -.122E-18 -.271E-19   -.375E-06 0.271E-06 -.216E-06
 -----------------------------------------------------------------------------------------------
   -.433E-04 -.111E-03 0.214E-03   -.193E-13 0.302E-13 -.124E-13   0.888E-15 0.944E-15 0.888E-15   -.244E-05 0.165E-05 -.108E-04
 
 
 POSITION                                       TOTAL-FORCE (eV/Angst)
 -----------------------------------------------------------------------------------
     -3.89473      0.02598     -3.89539        -0.010392      0.010392     -0.013229
     -3.84972     -0.01903      0.02770         0.010392     -0.010392      0.013229
     -3.83575      3.83575     -3.89937         0.060584     -0.060584     -0.048798
     -3.87679      3.87679      0.00216         0.000000      0.000000     -0.000000
     -0.03995      0.03995      0.03168        -0.060584      0.060584      0.048798
     -5.81229      1.94355     -1.94551         0.004703     -0.004703      0.019007
     -5.81003      1.94128      1.94983        -0.004703      0.004703     -0.019007
     -1.94777      1.94777      1.92916        -0.010344      0.010344      0.012227
     -1.93785      1.93785     -1.93384         0.000000      0.000000     -0.000000
     -1.92793      1.92793     -5.79685         0.010344     -0.010344     -0.012227
     -5.81116      1.94241      0.00216         0.000000      0.000000     -0.000000
     -5.80650      1.93775     -3.82789         0.010912     -0.010912     -0.021990
     -1.93752      1.93752     -0.02049         0.017832     -0.017832      0.025574
     -1.93819      1.93819     -3.84720        -0.017832      0.017832     -0.025574
     -5.81582      1.94708      3.83221        -0.010912      0.010912      0.021990
     -5.80828      0.04046      1.93281         0.012954      0.015358     -0.023684
     -5.81362      0.04499     -1.93308        -0.004693      0.014471     -0.004669
     -1.93878      3.87315     -5.80315         0.000000      0.000000     -0.000000
     -1.93083     -0.03804     -1.93461         0.004693     -0.014471      0.004669
     -5.81404      3.84437     -1.92849        -0.012954     -0.015358      0.023684
     -3.83071     -1.93792     -1.93461         0.014471     -0.004693      0.004669
     -3.84437      5.81404     -1.92849         0.015358      0.012954      0.023684
     -3.90921      1.93953      1.93281        -0.015358     -0.012954     -0.023684
     -3.91374      1.94488     -1.93308        -0.014471      0.004693     -0.004669
     -3.87315      1.93878     -5.80315         0.000000      0.000000     -0.000000
 -----------------------------------------------------------------------------------
    total drift:                               -0.000046     -0.000109      0.000203


--------------------------------------------------------------------------------------------------------



  FREE ENERGIE OF THE ION-ELECTRON SYSTEM (eV)
  ---------------------------------------------------
  free  energy   TOTEN  =      -180.61380428 eV

  energy  without entropy=     -180.61380428  energy(sigma->0) =     -180.61380428
 


--------------------------------------------------------------------------------------------------------


    POTLOK:  cpu time    0.0760: real time    0.1021


--------------------------------------------------------------------------------------------------------


     LOOP+:  cpu time  117.5977: real time  118.3384
    4ORBIT:  cpu time    0.0000: real time    0.0000
 


 total charge     
 
# of ion       s       p       d       f       tot
--------------------------------------------------
    1        2.000   5.700   0.493   0.192   8.384
    2        2.000   5.700   0.493   0.192   8.384
    3        2.000   5.699   0.493   0.192   8.383
    4        1.999   5.700   0.490   0.192   8.381
    5        2.000   5.699   0.493   0.192   8.384
    6        0.358   0.572   4.866   0.000   5.795
    7        0.358   0.572   4.865   0.000   5.795
    8        0.405   0.590   8.320   0.000   9.315
    9        0.404   0.598   8.318   0.000   9.320
   10        0.405   0.590   8.321   0.000   9.315
   11        1.561   3.470   0.000   0.000   5.031
   12        1.563   3.454   0.000   0.000   5.018
   13        1.559   3.444   0.000   0.000   5.003
   14        1.559   3.444   0.000   0.000   5.003
   15        1.563   3.454   0.000   0.000   5.018
   16        1.562   3.458   0.000   0.000   5.019
   17        1.562   3.455   0.000   0.000   5.018
   18        1.560   3.446   0.000   0.000   5.007
   19        1.562   3.455   0.000   0.000   5.018
   20        1.562   3.458   0.000   0.000   5.019
   21        1.562   3.455   0.000   0.000   5.017
   22        1.562   3.457   0.000   0.000   5.019
   23        1.562   3.457   0.000   0.000   5.019
   24        1.562   3.455   0.000   0.000   5.017
   25        1.560   3.438   0.000   0.000   4.998
--------------------------------------------------
tot         35.351  83.220  37.152   0.958 156.681

 


 magnetization (x)
 
# of ion       s       p       d       f       tot
--------------------------------------------------
    1        0.000   0.001   0.007   0.003   0.011
    2        0.000   0.001   0.007   0.003   0.011
    3        0.001   0.001   0.008   0.003   0.012
    4        0.001   0.001   0.008   0.003   0.013
    5        0.001   0.001   0.008   0.003   0.012
    6        0.024   0.031   3.215   0.000   3.270
    7        0.024   0.031   3.214   0.000   3.270
    8        0.012   0.003   1.576   0.000   1.591
    9        0.009   0.004   1.553   0.000   1.566
   10        0.012   0.003   1.576   0.000   1.591
   11        0.001  -0.018   0.000   0.000  -0.017
   12        0.005  -0.044   0.000   0.000  -0.039
   13        0.006  -0.047   0.000   0.000  -0.041
   14        0.006  -0.047   0.000   0.000  -0.041
   15        0.005  -0.044   0.000   0.000  -0.039
   16        0.005  -0.023   0.000   0.000  -0.019
   17        0.005  -0.024   0.000   0.000  -0.019
   18        0.006  -0.054   0.000   0.000  -0.048
   19        0.005  -0.024   0.000   0.000  -0.019
   20        0.005  -0.023   0.000   0.000  -0.019
   21        0.005  -0.025   0.000   0.000  -0.020
   22        0.005  -0.024   0.000   0.000  -0.020
   23        0.005  -0.024   0.000   0.000  -0.020
   24        0.005  -0.025   0.000   0.000  -0.020
   25        0.006  -0.062   0.000   0.000  -0.056
--------------------------------------------------
tot          0.158  -0.434  11.171   0.016  10.911

 
 BZINTS: Fermi energy:  7.574992;189.000000 electrons
         Band energy:-252.201964;  BLOECHL correction: -0.016635

 total amount of memory used by VASP MPI-rank0    77601. kBytes
=======================================================================

   base      :      30000. kBytes
   nonlr-proj:       6062. kBytes
   fftplans  :       2580. kBytes
   grid      :       7512. kBytes
   one-center:        294. kBytes
   wavefun   :      31153. kBytes
 
  
  
 General timing and accounting informations for this job:
 ========================================================
  
                  Total CPU time used (sec):      126.934
                            User time (sec):      124.052
                          System time (sec):        2.882
                         Elapsed time (sec):      127.831
  
                   Maximum memory used (kb):      133804.
                   Average memory used (kb):           0.
  
                          Minor page faults:        42260
                          Major page faults:            0
                 Voluntary context switches:         1117
