       N       E                     dE             d eps       ncg     rms          rms(c)
DAV:   1     0.359799831729E+04    0.35980E+04   -0.80132E+04  7450   0.250E+03
DAV:   2     0.125119696962E+04   -0.23468E+04   -0.21193E+04  7752   0.645E+02
DAV:   3     0.272424694665E+03   -0.97877E+03   -0.87792E+03  7768   0.328E+02
DAV:   4    -0.152118042122E+03   -0.42454E+03   -0.40253E+03 11176   0.180E+02
DAV:   5    -0.243350149116E+03   -0.91232E+02   -0.87977E+02 13062   0.975E+01    0.828E+01
RMM:   6    -0.216144193623E+03    0.27206E+02   -0.71560E+02 11883   0.110E+02    0.105E+02
RMM:   7    -0.217188630042E+03   -0.10444E+01   -0.14945E+02 12311   0.345E+01    0.492E+01
RMM:   8    -0.210624229562E+03    0.65644E+01   -0.56599E+01 10067   0.364E+01    0.232E+01
RMM:   9    -0.213298491836E+03   -0.26743E+01   -0.25961E+01 11470   0.160E+01    0.158E+01
RMM:  10    -0.213309100937E+03   -0.10609E-01   -0.48809E+00 12075   0.693E+00    0.102E+01
RMM:  11    -0.213494683951E+03   -0.18558E+00   -0.26099E+00 12497   0.428E+00    0.516E+00
RMM:  12    -0.213715355651E+03   -0.22067E+00   -0.13088E+00 12385   0.329E+00    0.345E+00
RMM:  13    -0.213722308098E+03   -0.69524E-02   -0.40663E-01 11396   0.239E+00    0.150E+00
RMM:  14    -0.213749381787E+03   -0.27074E-01   -0.16664E-01 11865   0.102E+00    0.107E+00
RMM:  15    -0.213762065521E+03   -0.12684E-01   -0.74964E-02 11195   0.712E-01    0.640E-01
RMM:  16    -0.213765353506E+03   -0.32880E-02   -0.36299E-02  9310   0.500E-01    0.320E-01
RMM:  17    -0.213768475163E+03   -0.31217E-02   -0.21783E-02  8081   0.424E-01    0.187E-01
RMM:  18    -0.213770064413E+03   -0.15892E-02   -0.15727E-02  7367   0.372E-01    0.727E-02
RMM:  19    -0.213771085837E+03   -0.10214E-02   -0.99112E-03  6934   0.340E-01    0.583E-02
RMM:  20    -0.213771929490E+03   -0.84365E-03   -0.73542E-03  6737   0.288E-01
   1 F= -.21377193E+03 E0= -.21377193E+03  d E =0.000000E+00  mag=    11.9995
