 vasp.5.4.4.18Apr17-6-g9f103f2a35 (build Oct 03 2018 13:58:34) complex          
  
 executed on             LinuxIFC date 2019.06.04  01:17:47
 running on   40 total cores
 distrk:  each k-point on   20 cores,    2 groups
 distr:  one band on NCORES_PER_BAND=  10 cores,    2 groups


--------------------------------------------------------------------------------------------------------


 INCAR:
 POTCAR:    PAW_PBE La 06Sep2000                  
 POTCAR:    PAW_PBE Mn 06Sep2000                  
 POTCAR:    PAW_PBE Ni 02Aug2007                  
 POTCAR:    PAW_PBE O 08Apr2002                   

 ----------------------------------------------------------------------------- 
|                                                                             |
|           W    W    AA    RRRRR   N    N  II  N    N   GGGG   !!!           |
|           W    W   A  A   R    R  NN   N  II  NN   N  G    G  !!!           |
|           W    W  A    A  R    R  N N  N  II  N N  N  G       !!!           |
|           W WW W  AAAAAA  RRRRR   N  N N  II  N  N N  G  GGG   !            |
|           WW  WW  A    A  R   R   N   NN  II  N   NN  G    G                |
|           W    W  A    A  R    R  N    N  II  N    N   GGGG   !!!           |
|                                                                             |
|      You have enabled k-point parallelism (KPAR>1).                         |
|      This developmental code was originally  written by Paul Kent at ORNL,  |
|      and carefully double checked in Vienna.                                |
|      GW as well as linear response parallelism added by Martijn Marsman     |
|      and Georg Kresse.                                                      |
|      Carefully verify results versus KPAR=1.                                |
|      Report problems to Paul Kent and Vienna.                               |
|                                                                             |
 ----------------------------------------------------------------------------- 

 POTCAR:    PAW_PBE La 06Sep2000                  
   VRHFIN =La : [core=Kr4d]                                                     
   LEXCH  = PE                                                                  
   EATOM  =   865.9763 eV,   63.6475 Ry                                         
                                                                                
   TITEL  = PAW_PBE La 06Sep2000                                                
   LULTRA =        F    use ultrasoft PP ?                                      
   IUNSCR =        1    unscreen: 0-lin 1-nonlin 2-no                           
   RPACOR =    2.300    partial core radius                                     
   POMASS =  138.900; ZVAL   =   11.000    mass and valenz                      
   RCORE  =    2.800    outmost cutoff radius                                   
   RWIGS  =    2.900; RWIGS  =    1.535    wigner-seitz radius (au A)           
   ENMAX  =  219.292; ENMIN  =  164.469 eV                                      
   RCLOC  =    1.601    cutoff for local pot                                    
   LCOR   =        T    correct aug charges                                     
   LPAW   =        T    paw PP                                                  
   EAUG   =  583.575                                                            
   DEXC   =    0.000                                                            
   RMAX   =    2.853    core radius for proj-oper                               
   RAUG   =    1.300    factor for augmentation sphere                          
   RDEP   =    2.802    radius for radial grids                                 
   RDEPT  =    2.156    core radius for aug-charge                              
                                                                                
   Atomic configuration                                                         
   14 entries                                                                   
     n  l   j            E        occ.                                          
     1  0  0.50    -38741.0879   2.0000                                         
     2  0  0.50     -6166.6801   2.0000                                         
     2  1  1.50     -5526.1593   6.0000                                         
     3  0  0.50     -1319.0200   2.0000                                         
     3  1  1.50     -1114.5963   6.0000                                         
     3  2  2.50      -821.1793  10.0000                                         
     4  0  0.50      -266.3851   2.0000                                         
     4  1  1.50      -199.9276   6.0000                                         
     4  2  2.50      -103.8239  10.0000                                         
     5  0  0.50       -38.9172   2.0000                                         
     6  0  0.50        -3.6792   2.0000                                         
     5  1  1.50       -22.3948   6.0000                                         
     5  2  2.50        -3.0911   0.9999                                         
     4  3  2.50        -4.3603   0.0001                                         
   Description                                                                  
     l       E           TYP  RCUT    TYP  RCUT                                 
     0    -38.9171645     23  2.800                                             
     0     -3.6792381     23  2.800                                             
     1    -22.3948300     23  2.500                                             
     1     27.2116520     23  2.500                                             
     2     -3.0910934     23  2.500                                             
     2      1.0119135     23  2.500                                             
     3     -4.3602911     23  2.800                                             
     3     -5.7208737     23  2.800                                             
  local pseudopotential read in
  partial core-charges read in
  partial kinetic energy density read in
  atomic valenz-charges read in
  non local Contribution for L=           0  read in
    real space projection operators read in
  non local Contribution for L=           0  read in
    real space projection operators read in
  non local Contribution for L=           1  read in
    real space projection operators read in
  non local Contribution for L=           1  read in
    real space projection operators read in
  non local Contribution for L=           2  read in
    real space projection operators read in
  non local Contribution for L=           2  read in
    real space projection operators read in
  non local Contribution for L=           3  read in
    real space projection operators read in
  non local Contribution for L=           3  read in
    real space projection operators read in
    PAW grid and wavefunctions read in
 
   number of l-projection  operators is LMAX  =           8
   number of lm-projection operators is LMMAX =          32
 
 POTCAR:    PAW_PBE Mn 06Sep2000                  
   VRHFIN =Mn: d6 s1                                                            
   LEXCH  = PE                                                                  
   EATOM  =   416.7541 eV,   30.6306 Ry                                         
                                                                                
   TITEL  = PAW_PBE Mn 06Sep2000                                                
   LULTRA =        F    use ultrasoft PP ?                                      
   IUNSCR =        1    unscreen: 0-lin 1-nonlin 2-no                           
   RPACOR =    2.000    partial core radius                                     
   POMASS =   54.938; ZVAL   =    7.000    mass and valenz                      
   RCORE  =    2.300    outmost cutoff radius                                   
   RWIGS  =    2.500; RWIGS  =    1.323    wigner-seitz radius (au A)           
   ENMAX  =  269.864; ENMIN  =  202.398 eV                                      
   RCLOC  =    1.725    cutoff for local pot                                    
   LCOR   =        T    correct aug charges                                     
   LPAW   =        T    paw PP                                                  
   EAUG   =  500.711                                                            
   DEXC   =    0.000                                                            
   RMAX   =    2.343    core radius for proj-oper                               
   RAUG   =    1.300    factor for augmentation sphere                          
   RDEP   =    2.338    radius for radial grids                                 
   RDEPT  =    1.911    core radius for aug-charge                              
                                                                                
   Atomic configuration                                                         
    9 entries                                                                   
     n  l   j            E        occ.                                          
     1  0  0.50     -6424.8288   2.0000                                         
     2  0  0.50      -739.1154   2.0000                                         
     2  1  1.50      -625.3949   6.0000                                         
     3  0  0.50       -81.6100   2.0000                                         
     3  1  1.50       -50.4667   6.0000                                         
     3  2  2.50        -3.3745   6.0000                                         
     4  0  0.50        -4.1331   1.0000                                         
     4  1  0.50        -4.0817   0.0000                                         
     4  3  2.50        -1.3606   0.0000                                         
   Description                                                                  
     l       E           TYP  RCUT    TYP  RCUT                                 
     2     -3.3744664     23  2.300                                             
     2     -4.7350490     23  2.300                                             
     0     -4.1331408     23  2.300                                             
     0      7.6656614     23  2.300                                             
     1     -2.7211652     23  2.300                                             
     1     20.4087390     23  2.300                                             
  local pseudopotential read in
  partial core-charges read in
  partial kinetic energy density read in
  atomic valenz-charges read in
  non local Contribution for L=           2  read in
    real space projection operators read in
  non local Contribution for L=           2  read in
    real space projection operators read in
  non local Contribution for L=           0  read in
    real space projection operators read in
  non local Contribution for L=           0  read in
    real space projection operators read in
  non local Contribution for L=           1  read in
    real space projection operators read in
  non local Contribution for L=           1  read in
    real space projection operators read in
    PAW grid and wavefunctions read in
 
   number of l-projection  operators is LMAX  =           6
   number of lm-projection operators is LMMAX =          18
 
 POTCAR:    PAW_PBE Ni 02Aug2007                  
   VRHFIN =Ni:                                                                  
   LEXCH  = PE                                                                  
   EATOM  =  1077.6739 eV,   79.2068 Ry                                         
                                                                                
   TITEL  = PAW_PBE Ni 02Aug2007                                                
   LULTRA =        F    use ultrasoft PP ?                                      
   IUNSCR =        1    unscreen: 0-lin 1-nonlin 2-no                           
   RPACOR =    2.000    partial core radius                                     
   POMASS =   58.690; ZVAL   =   10.000    mass and valenz                      
   RCORE  =    2.300    outmost cutoff radius                                   
   RWIGS  =    2.430; RWIGS  =    1.286    wigner-seitz radius (au A)           
   ENMAX  =  269.532; ENMIN  =  202.149 eV                                      
   RCLOC  =    1.201    cutoff for local pot                                    
   LCOR   =        T    correct aug charges                                     
   LPAW   =        T    paw PP                                                  
   EAUG   =  544.565                                                            
   DEXC   =    0.000                                                            
   RMAX   =    2.357    core radius for proj-oper                               
   RAUG   =    1.300    factor for augmentation sphere                          
   RDEP   =    2.390    radius for radial grids                                 
   RDEPT  =    1.838    core radius for aug-charge                              
                                                                                
   Atomic configuration                                                         
    9 entries                                                                   
     n  l   j            E        occ.                                          
     1  0  0.50     -8206.4253   2.0000                                         
     2  0  0.50      -976.1748   2.0000                                         
     2  1  1.50      -839.0571   6.0000                                         
     3  0  0.50      -105.9991   2.0000                                         
     3  1  1.50       -66.4603   6.0000                                         
     3  2  2.50        -4.6458   9.0000                                         
     4  0  0.50        -4.4926   1.0000                                         
     4  1  1.50        -4.0817   0.0000                                         
     4  3  2.50        -1.3606   0.0000                                         
   Description                                                                  
     l       E           TYP  RCUT    TYP  RCUT                                 
     2     -4.6457903     23  2.300                                             
     2     -6.0063729     23  2.300                                             
     0     -4.4925590     23  2.300                                             
     0      5.0102601     23  2.300                                             
     1     -2.7211652     23  2.300                                             
     1     16.5183231     23  2.300                                             
  local pseudopotential read in
  partial core-charges read in
  partial kinetic energy density read in
  atomic valenz-charges read in
  non local Contribution for L=           2  read in
    real space projection operators read in
  non local Contribution for L=           2  read in
    real space projection operators read in
  non local Contribution for L=           0  read in
    real space projection operators read in
  non local Contribution for L=           0  read in
    real space projection operators read in
  non local Contribution for L=           1  read in
    real space projection operators read in
  non local Contribution for L=           1  read in
    real space projection operators read in
    PAW grid and wavefunctions read in
 
   number of l-projection  operators is LMAX  =           6
   number of lm-projection operators is LMMAX =          18
 
 POTCAR:    PAW_PBE O 08Apr2002                   
   VRHFIN =O: s2p4                                                              
   LEXCH  = PE                                                                  
   EATOM  =   432.3788 eV,   31.7789 Ry                                         
                                                                                
   TITEL  = PAW_PBE O 08Apr2002                                                 
   LULTRA =        F    use ultrasoft PP ?                                      
   IUNSCR =        1    unscreen: 0-lin 1-nonlin 2-no                           
   RPACOR =    1.200    partial core radius                                     
   POMASS =   16.000; ZVAL   =    6.000    mass and valenz                      
   RCORE  =    1.520    outmost cutoff radius                                   
   RWIGS  =    1.550; RWIGS  =    0.820    wigner-seitz radius (au A)           
   ENMAX  =  400.000; ENMIN  =  300.000 eV                                      
   ICORE  =        2    local potential                                         
   LCOR   =        T    correct aug charges                                     
   LPAW   =        T    paw PP                                                  
   EAUG   =  605.392                                                            
   DEXC   =    0.000                                                            
   RMAX   =    1.553    core radius for proj-oper                               
   RAUG   =    1.300    factor for augmentation sphere                          
   RDEP   =    1.550    radius for radial grids                                 
   RDEPT  =    1.329    core radius for aug-charge                              
                                                                                
   Atomic configuration                                                         
    4 entries                                                                   
     n  l   j            E        occ.                                          
     1  0  0.50      -514.6923   2.0000                                         
     2  0  0.50       -23.9615   2.0000                                         
     2  1  0.50        -9.0305   4.0000                                         
     3  2  1.50        -9.5241   0.0000                                         
   Description                                                                  
     l       E           TYP  RCUT    TYP  RCUT                                 
     0    -23.9615318     23  1.200                                             
     0     -9.5240782     23  1.200                                             
     1     -9.0304911     23  1.520                                             
     1      8.1634956     23  1.520                                             
     2     -9.5240782      7  1.500                                             
  local pseudopotential read in
  partial core-charges read in
  partial kinetic energy density read in
  kinetic energy density of atom read in
  atomic valenz-charges read in
  non local Contribution for L=           0  read in
    real space projection operators read in
  non local Contribution for L=           0  read in
    real space projection operators read in
  non local Contribution for L=           1  read in
    real space projection operators read in
  non local Contribution for L=           1  read in
    real space projection operators read in
    PAW grid and wavefunctions read in
 
   number of l-projection  operators is LMAX  =           4
   number of lm-projection operators is LMMAX =           8
 
 Optimization of the real space projectors (new method)

 maximal supplied QI-value         = 13.42
 optimisation between [QCUT,QGAM] = [ 11.67, 23.35] = [ 38.16,152.62] Ry 
 Optimized for a Real-space Cutoff    1.63 Angstroem

   l    n(q)    QCUT    max X(q) W(low)/X(q) W(high)/X(q)  e(spline) 
   0     11    11.673    13.882    0.27E-04    0.79E-05    0.11E-06
   0     11    11.673    12.184    0.39E-04    0.13E-04    0.19E-06
   1     11    11.673     4.523    0.73E-05    0.76E-05    0.12E-06
   1     11    11.673     4.424    0.87E-05    0.13E-04    0.19E-06
   2     10    11.673    52.481    0.65E-04    0.36E-04    0.18E-06
   2     10    11.673    38.501    0.61E-04    0.33E-04    0.17E-06
   3     10    11.673    65.631    0.17E-03    0.14E-03    0.37E-06
   3     10    11.673    56.854    0.17E-03    0.14E-03    0.37E-06
 Optimization of the real space projectors (new method)

 maximal supplied QI-value         = 16.25
 optimisation between [QCUT,QGAM] = [ 11.54, 23.24] = [ 37.28,151.24] Ry 
 Optimized for a Real-space Cutoff    1.53 Angstroem

   l    n(q)    QCUT    max X(q) W(low)/X(q) W(high)/X(q)  e(spline) 
   2     10    11.539   110.144    0.12E-03    0.13E-03    0.25E-06
   2     10    11.539   103.200    0.12E-03    0.13E-03    0.25E-06
   0     11    11.539    68.437    0.46E-04    0.21E-04    0.32E-06
   0     11    11.539    33.971    0.37E-04    0.19E-04    0.29E-06
   1     10    11.539    17.065    0.51E-04    0.22E-04    0.13E-06
   1     10    11.539    12.540    0.41E-04    0.18E-04    0.11E-06
 Optimization of the real space projectors (new method)

 maximal supplied QI-value         = 16.25
 optimisation between [QCUT,QGAM] = [ 11.54, 23.24] = [ 37.28,151.24] Ry 
 Optimized for a Real-space Cutoff    1.45 Angstroem

   l    n(q)    QCUT    max X(q) W(low)/X(q) W(high)/X(q)  e(spline) 
   2      9    11.539    60.317    0.19E-03    0.47E-04    0.16E-06
   2      9    11.539    55.921    0.19E-03    0.48E-04    0.16E-06
   0     10    11.539    51.690    0.80E-04    0.50E-04    0.24E-06
   0     10    11.539    30.015    0.73E-04    0.45E-04    0.22E-06
   1     10    11.539    18.849    0.87E-04    0.16E-03    0.71E-07
   1     10    11.539    14.624    0.73E-04    0.13E-03    0.64E-07
 Optimization of the real space projectors (new method)

 maximal supplied QI-value         = 24.76
 optimisation between [QCUT,QGAM] = [ 11.64, 23.27] = [ 37.91,151.63] Ry 
 Optimized for a Real-space Cutoff    1.14 Angstroem

   l    n(q)    QCUT    max X(q) W(low)/X(q) W(high)/X(q)  e(spline) 
   0      8    11.635    20.381    0.10E-03    0.33E-03    0.24E-06
   0      8    11.635    15.268    0.11E-03    0.35E-03    0.26E-06
   1      7    11.635     5.964    0.24E-03    0.31E-03    0.30E-06
   1      7    11.635     5.382    0.22E-03    0.25E-03    0.26E-06
  PAW_PBE La 06Sep2000                  :
 energy of atom  1       EATOM= -865.9763
 kinetic energy error for atom=    0.0009 (will be added to EATOM!!)
  PAW_PBE Mn 06Sep2000                  :
 energy of atom  2       EATOM= -416.7541
 kinetic energy error for atom=    0.0024 (will be added to EATOM!!)
  PAW_PBE Ni 02Aug2007                  :
 energy of atom  3       EATOM=-1077.6739
 kinetic energy error for atom=    0.0030 (will be added to EATOM!!)
  PAW_PBE O 08Apr2002                   :
 energy of atom  4       EATOM= -432.3788
 kinetic energy error for atom=    0.0208 (will be added to EATOM!!)
 
 
 POSCAR: SCEL6_2_1_3_0_1_1/0                     
  positions in direct lattice
  velocities in cartesian coordinates
 exchange correlation table for  LEXCH =        8
   RHO(1)=    0.500       N(1)  =     2000
   RHO(2)=  100.500       N(2)  =     4000
 


--------------------------------------------------------------------------------------------------------


 ion  position               nearest neighbor table
   1  0.165  0.165  0.329-  24 2.74  27 2.74  30 2.74  21 2.74  14 2.77  14 2.77  17 2.77  17 2.77
                            23 2.82  26 2.82  29 2.82  20 2.82   9 3.37  12 3.37  12 3.37   9 3.37
   2  0.333  0.333  0.667-  19 2.77  25 2.77  28 2.77  22 2.77  20 2.77  29 2.77  26 2.77  23 2.77
                            13 2.77  16 2.77  13 2.77  16 2.77  10 3.39  10 3.39   7 3.39   7 3.39
   3  0.502  0.502  0.004-  21 2.74  27 2.74  30 2.74  24 2.74  15 2.77  15 2.77  18 2.77  18 2.77
                            19 2.82  25 2.82  28 2.82  22 2.82  12 3.37   9 3.37   9 3.37  12 3.37
   4  0.665  0.665  0.329-  21 2.74  27 2.74  30 2.74  24 2.74  14 2.77  14 2.77  17 2.77  17 2.77
                            20 2.82  26 2.82  29 2.82  23 2.82   9 3.37  12 3.37   9 3.37  12 3.37
   5  0.833  0.833  0.667-  22 2.77  25 2.77  28 2.77  19 2.77  23 2.77  29 2.77  26 2.77  20 2.77
                            13 2.77  16 2.77  13 2.77  16 2.77  10 3.39  10 3.39   7 3.39   7 3.39
   6  0.002  0.002  0.004-  24 2.74  27 2.74  30 2.74  21 2.74  15 2.77  15 2.77  18 2.77  18 2.77
                            22 2.82  25 2.82  28 2.82  19 2.82   9 3.37  12 3.37   9 3.37  12 3.37
   7  0.750  0.250  0.500-  29 1.96  23 1.96  20 1.96  26 1.96  14 1.97  13 2.00   2 3.39   5 3.39
                             2 3.39   5 3.39   4 3.43   1 3.43   4 3.43   1 3.43
   8  0.917  0.417  0.834-  18 1.94  13 1.95  25 1.96  22 1.96  19 1.96  28 1.96   2 3.40   5 3.40
                             5 3.40   2 3.40   3 3.42   6 3.42   3 3.42   6 3.42
   9  0.583  0.083  0.167-  21 1.92  24 1.92  27 1.92  30 1.92  14 1.97  15 1.97   1 3.37   4 3.37
                             3 3.37   6 3.37   1 3.37   4 3.37   3 3.37   6 3.37
  10  0.416  0.916  0.833-  28 1.96  22 1.96  19 1.96  25 1.96  15 1.97  16 2.00   2 3.39   5 3.39
                             2 3.39   5 3.39   6 3.43   3 3.43   3 3.43   6 3.43
  11  0.249  0.749  0.499-  17 1.94  16 1.95  26 1.96  23 1.96  20 1.96  29 1.96   5 3.40   2 3.40
                             2 3.40   5 3.40   1 3.42   4 3.42   4 3.42   1 3.42
  12  0.083  0.583  0.167-  17 1.98  18 1.98  21 2.00  24 2.00  27 2.00  30 2.00   1 3.37   4 3.37
                             6 3.37   3 3.37   4 3.37   1 3.37   3 3.37   6 3.37
  13  0.835  0.335  0.670-   8 1.95   7 2.00   2 2.77   5 2.77   5 2.77   2 2.77
  14  0.667  0.167  0.334-   7 1.97   9 1.97   1 2.77   4 2.77   4 2.77   1 2.77
  15  0.500  1.000  0.999-  10 1.97   9 1.97   3 2.77   6 2.77   6 2.77   3 2.77
  16  0.332  0.832  0.664-  11 1.95  10 2.00   2 2.77   5 2.77   5 2.77   2 2.77
  17  0.167  0.667  0.334-  11 1.94  12 1.98   1 2.77   4 2.77   1 2.77   4 2.77
  18  0.999  0.499  0.999-   8 1.94  12 1.98   3 2.77   6 2.77   3 2.77   6 2.77
  19  0.167  0.166  0.832-  10 1.96   8 1.96   2 2.77   5 2.77   3 2.82   6 2.82
  20  0.000  0.001  0.501-   7 1.96  11 1.96   2 2.77   5 2.77   4 2.82   1 2.82
  21  0.829  0.838  0.167-   9 1.92  12 2.00   4 2.74   3 2.74   1 2.74   6 2.74
  22  0.666  0.667  0.832-  10 1.96   8 1.96   5 2.77   2 2.77   6 2.82   3 2.82
  23  0.501  0.500  0.501-   7 1.96  11 1.96   5 2.77   2 2.77   1 2.82   4 2.82
  24  0.338  0.329  0.167-   9 1.92  12 2.00   1 2.74   6 2.74   4 2.74   3 2.74
  25  0.666  0.166  0.832-  10 1.96   8 1.96   2 2.77   5 2.77   3 2.82   6 2.82
  26  0.501  0.001  0.501-   7 1.96  11 1.96   2 2.77   5 2.77   4 2.82   1 2.82
  27  0.338  0.838  0.167-   9 1.92  12 2.00   1 2.74   4 2.74   3 2.74   6 2.74
  28  0.167  0.667  0.832-  10 1.96   8 1.96   2 2.77   5 2.77   3 2.82   6 2.82
  29  0.000  0.500  0.501-   7 1.96  11 1.96   2 2.77   5 2.77   4 2.82   1 2.82
  30  0.829  0.329  0.167-   9 1.92  12 2.00   1 2.74   4 2.74   3 2.74   6 2.74
 
  LATTYP: Found a body centered tetragonal cell.
 ALAT       =     5.5401507497
 C/A-ratio  =     4.2595760483
  
  Lattice vectors:
  
 A1 = (   0.0000000000,  -3.9174781639,  11.7993467188)
 A2 = (   0.0000000000,   3.9174781639,  11.7993467188)
 A3 = (  -3.9174781639,   0.0000000000, -11.7993467188)


Analysis of symmetry for initial positions (statically):
=====================================================================
 Subroutine PRICEL returns:
 Original cell was already a primitive cell.
 

 Routine SETGRP: Setting up the symmetry group for a 
 body centered tetragonal supercell.


 Subroutine GETGRP returns: Found 16 space group operations
 (whereof  4 operations were pure point group operations)
 out of a pool of 16 trial point group operations.


The static configuration has the point symmetry C_2v.
 The point group associated with its full space group is D_4h.


Analysis of symmetry for dynamics (positions and initial velocities):
=====================================================================
 Subroutine PRICEL returns:
 Original cell was already a primitive cell.
 

 Routine SETGRP: Setting up the symmetry group for a 
 body centered tetragonal supercell.


 Subroutine GETGRP returns: Found 16 space group operations
 (whereof  4 operations were pure point group operations)
 out of a pool of 16 trial point group operations.


The dynamic configuration has the point symmetry C_2v.
 The point group associated with its full space group is D_4h.


Analysis of structural, dynamic, and magnetic symmetry:
=====================================================================
 Subroutine PRICEL returns:
 Original cell was already a primitive cell.
 

 Routine SETGRP: Setting up the symmetry group for a 
 body centered tetragonal supercell.


 Subroutine GETGRP returns: Found 16 space group operations
 (whereof  4 operations were pure point group operations)
 out of a pool of 16 trial point group operations.


The magnetic configuration has the point symmetry C_2v.
 The point group associated with its full space group is D_4h.


 Subroutine INISYM returns: Found 16 space group operations
 (whereof  4 operations are pure point group operations),
 and found     1 'primitive' translations

 
 
 KPOINTS: Automatic mesh                          

Automatic generation of k-mesh.
 generate k-points for:    4    4    2
Space group operators:
 irot       det(A)        alpha          n_x          n_y          n_z        tau_x        tau_y        tau_z
    1     1.000000     0.000000     1.000000     0.000000     0.000000     0.000000     0.000000     0.000000
    2     1.000000   180.000000     0.000000     0.000000     1.000000     0.000000     0.000000     0.000000
    3    -1.000000   180.000000     0.707107     0.707107     0.000000     0.000000     0.000000     0.000000
    4    -1.000000   180.000000     0.707107    -0.707107     0.000000     0.000000     0.000000     0.000000
    5    -1.000000     0.000000     1.000000     0.000000     0.000000     0.166667     0.166667     0.333334
    6     1.000000    90.000000     0.000000     0.000000    -1.000000     0.500000     0.500000     1.000000
    7    -1.000000    90.000000     0.000000     0.000000    -1.000000     0.666667     0.666667     1.333334
    8    -1.000000   180.000000     0.000000     0.000000     1.000000     0.166667     0.166667     0.333334
    9     1.000000    90.000000     0.000000     0.000000     1.000000     0.500000     0.500000     1.000000
   10    -1.000000    90.000000     0.000000     0.000000     1.000000     0.666667     0.666667     1.333334
   11     1.000000   180.000000     0.707107     0.707107     0.000000     0.166667     0.166667     0.333334
   12     1.000000   180.000000     1.000000     0.000000     0.000000     0.666667     0.666667     1.333334
   13    -1.000000   180.000000     1.000000     0.000000     0.000000     0.500000     0.500000     1.000000
   14     1.000000   180.000000     0.707107    -0.707107     0.000000     0.166667     0.166667     0.333334
   15     1.000000   179.999999     0.000000     1.000000     0.000000     0.666667     0.666667     1.333334
   16    -1.000000   179.999999     0.000000     1.000000     0.000000     0.500000     0.500000     1.000000
 
 Subroutine IBZKPT returns following result:
 ===========================================
 
 Found     10 irreducible k-points:
 
 Following reciprocal coordinates:
            Coordinates               Weight
  0.000000  0.000000  0.000000      1.000000
  0.250000  0.000000 -0.000000      4.000000
  0.500000  0.000000 -0.000000      4.000000
  0.250000  0.250000 -0.000000      4.000000
  0.500000  0.250000 -0.000000      8.000000
 -0.250000  0.250000  0.000000      2.000000
  0.500000  0.500000 -0.000000      2.000000
  0.000000  0.000000  0.500000      1.000000
  0.250000  0.000000  0.500000      4.000000
 -0.250000  0.250000  0.500000      2.000000
 
 Following cartesian coordinates:
            Coordinates               Weight
  0.000000  0.000000  0.000000      1.000000
  0.031908 -0.031908  0.010594      4.000000
  0.063817 -0.063817  0.021188      4.000000
  0.063817  0.000000  0.021188      4.000000
  0.095725 -0.031908  0.031781      8.000000
  0.000000  0.063817  0.000000      2.000000
  0.127633  0.000000  0.042375      2.000000
  0.000000  0.000000  0.042375      1.000000
  0.031908 -0.031908  0.052969      4.000000
  0.000000  0.063817  0.042375      2.000000
 
 TETIRR: Found     41 inequivalent tetrahedra from      192


--------------------------------------------------------------------------------------------------------




 Dimension of arrays:
   k-points           NKPTS =     10   k-points in BZ     NKDIM =     10   number of bands    NBANDS=    144
   number of dos      NEDOS =    301   number of ions     NIONS =     30
   non local maximal  LDIM  =      8   non local SUM 2l+1 LMDIM =     32
   total plane-waves  NPLWV = 169344
   max r-space proj   IRMAX =   8489   max aug-charges    IRDMAX=  24630
   dimension x,y,z NGX =    42 NGY =   42 NGZ =   96
   dimension x,y,z NGXF=    84 NGYF=   84 NGZF=  192
   support grid    NGXF=    84 NGYF=   84 NGZF=  192
   ions per type =               6   5   1  18
   NGX,Y,Z   is equivalent  to a cutoff of  12.60, 12.60, 12.84 a.u.
   NGXF,Y,Z  is equivalent  to a cutoff of  25.21, 25.21, 25.67 a.u.

 SYSTEM =  final                                   
 POSCAR =  SCEL6_2_1_3_0_1_1/0                     

 Startparameter for this run:
   NWRITE =      2    write-flag & timer
   PREC   = accura    normal or accurate (medium, high low for compatibility)
   ISTART =      0    job   : 0-new  1-cont  2-samecut
   ICHARG =      1    charge: 1-file 2-atom 10-const
   ISPIN  =      2    spin polarized calculation?
   LNONCOLLINEAR =      F non collinear calculations
   LSORBIT =      F    spin-orbit coupling
   INIWAV =      1    electr: 0-lowe 1-rand  2-diag
   LASPH  =      F    aspherical Exc in radial PAW
   METAGGA=      F    non-selfconsistent MetaGGA calc.

 Electronic Relaxation 1
   ENCUT  =  520.0 eV  38.22 Ry    6.18 a.u.  10.30 10.30 23.12*2*pi/ulx,y,z
   ENINI  =  520.0     initial cutoff
   ENAUG  =  605.4 eV  augmentation charge cutoff
   NELM   =    100;   NELMIN=  2; NELMDL= -5     # of ELM steps 
   EDIFF  = 0.1E-02   stopping-criterion for ELM
   LREAL  =      T    real-space projection
   NLSPLINE    = F    spline interpolate recip. space projectors
   LCOMPAT=      F    compatible to vasp.4.4
   GGA_COMPAT  = T    GGA compatible to vasp.4.4-vasp.4.6
   LMAXPAW     = -100 max onsite density
   LMAXMIX     =    6 max onsite mixed and CHGCAR
   VOSKOWN=      0    Vosko Wilk Nusair interpolation
   ROPT   =   -0.00025  -0.00025  -0.00025  -0.00025
 Ionic relaxation
   EDIFFG = 0.1E-01   stopping-criterion for IOM
   NSW    =      0    number of steps for IOM
   NBLOCK =      1;   KBLOCK =      1    inner block; outer block 
   IBRION =     -1    ionic relax: 0-MD 1-quasi-New 2-CG
   NFREE  =      0    steps in history (QN), initial steepest desc. (CG)
   ISIF   =      2    stress and relaxation
   IWAVPR =     10    prediction:  0-non 1-charg 2-wave 3-comb
   ISYM   =      2    0-nonsym 1-usesym 2-fastsym
   LCORR  =      T    Harris-Foulkes like correction to forces

   POTIM  = 0.5000    time-step for ionic-motion
   TEIN   =    0.0    initial temperature
   TEBEG  =    0.0;   TEEND  =   0.0 temperature during run
   SMASS  =  -3.00    Nose mass-parameter (am)
   estimated Nose-frequenzy (Omega)   =  0.10E-29 period in steps =****** mass=  -0.701E-27a.u.
   SCALEE = 1.0000    scale energy and forces
   NPACO  =    256;   APACO  = 16.0  distance and # of slots for P.C.
   PSTRESS=    0.0 pullay stress

  Mass of Ions in am
   POMASS = 138.90 54.94 58.69 16.00
  Ionic Valenz
   ZVAL   =  11.00  7.00 10.00  6.00
  Atomic Wigner-Seitz radii
   RWIGS  =  -1.00 -1.00 -1.00 -1.00
  virtual crystal weights 
   VCA    =   1.00  1.00  1.00  1.00
   NELECT =     219.0000    total number of electrons
   NUPDOWN=      -1.0000    fix difference up-down

 DOS related values:
   EMIN   =  10.00;   EMAX   =-10.00  energy-range for DOS
   EFERMI =   0.00
   ISMEAR =    -5;   SIGMA  =   0.05  broadening in eV -4-tet -1-fermi 0-gaus

 Electronic relaxation 2 (details)
   IALGO  =     68    algorithm
   LDIAG  =      T    sub-space diagonalisation (order eigenvalues)
   LSUBROT=      F    optimize rotation matrix (better conditioning)
   TURBO    =      0    0=normal 1=particle mesh
   IRESTART =      0    0=no restart 2=restart with 2 vectors
   NREBOOT  =      0    no. of reboots
   NMIN     =      0    reboot dimension
   EREF     =   0.00    reference energy to select bands
   IMIX   =      4    mixing-type and parameters
     AMIX     =   0.40;   BMIX     =  1.00
     AMIX_MAG =   1.60;   BMIX_MAG =  1.00
     AMIN     =   0.10
     WC   =   100.;   INIMIX=   1;  MIXPRE=   1;  MAXMIX= -45

 Intra band minimization:
   WEIMIN = 0.0000     energy-eigenvalue tresh-hold
   EBREAK =  0.17E-05  absolut break condition
   DEPER  =   0.30     relativ break condition  

   TIME   =   0.40     timestep for ELM

  volume/ion in A,a.u.               =      12.07        81.47
  Fermi-wavevector in a.u.,A,eV,Ry     =   1.384382  2.616102 26.075735  1.916512
  Thomas-Fermi vector in A             =   2.508891
 
 Write flags
   LWAVE        =      F    write WAVECAR
   LDOWNSAMPLE  =      F    k-point downsampling of WAVECAR
   LCHARG       =      T    write CHGCAR
   LVTOT        =      F    write LOCPOT, total local potential
   LVHAR        =      F    write LOCPOT, Hartree potential only
   LELF         =      F    write electronic localiz. function (ELF)
   LORBIT       =     11    0 simple, 1 ext, 2 COOP (PROOUT), +10 PAW based schemes


 Dipole corrections
   LMONO  =      F    monopole corrections only (constant potential shift)
   LDIPOL =      F    correct potential (dipole corrections)
   IDIPOL =      0    1-x, 2-y, 3-z, 4-all directions 
   EPSILON=  1.0000000 bulk dielectric constant

 LDA+U is selected, type is set to LDAUTYPE =  2
   angular momentum for each species LDAUL =     0    2    2    0
   U (eV)           for each species LDAUU =   0.0  3.9  6.2  0.0
   J (eV)           for each species LDAUJ =   0.0  0.0  0.0  0.0
 Exchange correlation treatment:
   GGA     =    --    GGA type
   LEXCH   =     8    internal setting for exchange type
   VOSKOWN=      0    Vosko Wilk Nusair interpolation
   LHFCALC =     F    Hartree Fock is set to
   LHFONE  =     F    Hartree Fock one center treatment
   AEXX    =    0.0000 exact exchange contribution

 Linear response parameters
   LEPSILON=     F    determine dielectric tensor
   LRPA    =     F    only Hartree local field effects (RPA)
   LNABLA  =     F    use nabla operator in PAW spheres
   LVEL    =     F    velocity operator in full k-point grid
   LINTERFAST=   F  fast interpolation
   KINTER  =     0    interpolate to denser k-point grid
   CSHIFT  =0.1000    complex shift for real part using Kramers Kronig
   OMEGAMAX=  -1.0    maximum frequency
   DEG_THRESHOLD= 0.2000000E-02 threshold for treating states as degnerate
   RTIME   =   -0.100 relaxation time in fs
  (WPLASMAI=    0.000 imaginary part of plasma frequency in eV, 0.658/RTIME)
   DFIELD  = 0.0000000 0.0000000 0.0000000 field for delta impulse in time
 
 Orbital magnetization related:
   ORBITALMAG=     F  switch on orbital magnetization
   LCHIMAG   =     F  perturbation theory with respect to B field
   DQ        =  0.001000  dq finite difference perturbation B field
   LLRAUG    =     F  two centre corrections for induced B field



--------------------------------------------------------------------------------------------------------


 Static calculation
 charge density and potential will be updated during run
 spin polarized calculation
 RMM-DIIS sequential band-by-band and
  variant of blocked Davidson during initial phase
 perform sub-space diagonalisation
    before iterative eigenvector-optimisation
 modified Broyden-mixing scheme, WC =      100.0
 initial mixing is a Kerker type mixing with AMIX =  0.4000 and BMIX =      1.0000
 Hartree-type preconditioning will be used
 using additional bands           34
 real space projection scheme for non local part
 use partial core corrections
 calculate Harris-corrections to forces 
   (improved forces if not selfconsistent)
 use gradient corrections 
 use of overlap-Matrix (Vanderbilt PP)
 Fermi weights with tetrahedron method with Bloechl corrections


--------------------------------------------------------------------------------------------------------


  energy-cutoff  :      520.00
  volume of cell :      362.16
      direct lattice vectors                 reciprocal lattice vectors
     3.917478164 -3.917478164  0.000000000     0.127633130 -0.127633130  0.042375227
     3.917478164  3.917478164  0.000000000     0.127633130  0.127633130  0.042375227
    -3.917478164  0.000000000 11.799346719     0.000000000  0.000000000  0.084750455

  length of vectors
     5.540150750  5.540150750 12.432667379     0.185407906  0.185407906  0.084750455


 
 k-points in units of 2pi/SCALE and weight: Automatic mesh                          
   0.00000000  0.00000000  0.00000000       0.031
   0.03190828 -0.03190828  0.01059381       0.125
   0.06381657 -0.06381657  0.02118761       0.125
   0.06381657  0.00000000  0.02118761       0.125
   0.09572485 -0.03190828  0.03178142       0.250
   0.00000000  0.06381657  0.00000000       0.062
   0.12763313  0.00000000  0.04237523       0.062
   0.00000000  0.00000000  0.04237523       0.031
   0.03190828 -0.03190828  0.05296903       0.125
   0.00000000  0.06381657  0.04237523       0.062
 
 k-points in reciprocal lattice and weights: Automatic mesh                          
   0.00000000  0.00000000  0.00000000       0.031
   0.25000000  0.00000000 -0.00000000       0.125
   0.50000000  0.00000000 -0.00000000       0.125
   0.25000000  0.25000000 -0.00000000       0.125
   0.50000000  0.25000000 -0.00000000       0.250
  -0.25000000  0.25000000  0.00000000       0.062
   0.50000000  0.50000000 -0.00000000       0.062
   0.00000000  0.00000000  0.50000000       0.031
   0.25000000  0.00000000  0.50000000       0.125
  -0.25000000  0.25000000  0.50000000       0.062
 
 position of ions in fractional coordinates (direct lattice) 
   0.16472218  0.16472218  0.32944426
   0.33333330  0.33333330  0.66666670
   0.50194452  0.50194452  0.00388904
   0.66472218  0.66472218  0.32944426
   0.83333330  0.83333330  0.66666670
   0.00194452  0.00194452  0.00388904
   0.75021402  0.25021402  0.50042804
   0.91723693  0.41723693  0.83447376
   0.58333330  0.08333330  0.16666670
   0.41645268  0.91645268  0.83290526
   0.24942977  0.74942977  0.49885954
   0.08333330  0.58333330  0.16666670
   0.83476379  0.33476379  0.66952767
   0.66694513  0.16694513  0.33389017
   0.49972157  0.99972157  0.99944313
   0.33190281  0.83190281  0.66380573
   0.16719786  0.66719786  0.33439561
   0.99946884  0.49946884  0.99893769
   0.16651734  0.16586106  0.83237831
   0.00014936  0.00080564  0.50095499
   0.82856126  0.83810534  0.16666670
   0.66586106  0.66651734  0.83237831
   0.50080564  0.50014936  0.50095499
   0.33810534  0.32856126  0.16666670
   0.66586106  0.16586106  0.83237831
   0.50080564  0.00080564  0.50095499
   0.33810534  0.83810534  0.16666670
   0.16651734  0.66651734  0.83237831
   0.00014936  0.50014936  0.50095499
   0.82856126  0.32856126  0.16666670
 
 position of ions in cartesian coordinates  (Angst):
   0.00000039  0.00000000  3.88722701
  -0.00000039  0.00000000  7.86623154
   3.91747816  0.00000000  0.04588817
   3.91747856  0.00000000  3.88722701
   3.91747777  0.00000000  7.86623154
   0.00000000  0.00000000  0.04588817
   1.95873908 -1.95873908  5.90472400
   1.95873947 -1.95873908  9.84624518
   1.95873869 -1.95873908  1.96655818
   1.95873947  1.95873908  9.82773790
   1.95873908  1.95873908  5.88621672
   1.95873869  1.95873908  1.96655818
   1.95873869 -1.95873908  7.89998914
   1.95873947 -1.95873908  3.93968583
   1.95873908  1.95873908 11.79277607
   1.95873869  1.95873908  7.83247394
   1.95873947  1.95873908  3.94564975
   1.95873908 -1.95873908 11.78681215
  -1.95873869 -0.00257096  9.82152027
  -1.95873908  0.00257096  5.91094163
   5.87621685  0.03738870  1.96655818
   1.95873947  0.00257096  9.82152027
   1.95873908 -0.00257096  5.91094163
   1.95873869 -0.03738870  1.96655818
  -0.00257057 -1.95873908  9.82152027
   0.00257096 -1.95873908  5.91094163
   3.95486647  1.95873908  1.96655818
   0.00257135  1.95873908  9.82152027
  -0.00257096  1.95873908  5.91094163
   3.88008907 -1.95873908  1.96655818
 


--------------------------------------------------------------------------------------------------------


 k-point  1 :   0.0000 0.0000 0.0000  plane waves:    9795
 k-point  2 :   0.2500 0.0000-0.0000  plane waves:    9776
 k-point  3 :   0.5000 0.0000-0.0000  plane waves:    9714
 k-point  4 :   0.2500 0.2500-0.0000  plane waves:    9753
 k-point  5 :   0.5000 0.2500-0.0000  plane waves:    9746
 k-point  6 :  -0.2500 0.2500 0.0000  plane waves:    9737
 k-point  7 :   0.5000 0.5000-0.0000  plane waves:    9770
 k-point  8 :   0.0000 0.0000 0.5000  plane waves:    9760
 k-point  9 :   0.2500 0.0000 0.5000  plane waves:    9759
 k-point 10 :  -0.2500 0.2500 0.5000  plane waves:    9758

 maximum and minimum number of plane-waves per node :       997      959

 maximum number of plane-waves:      9795
 maximum index in each direction: 
   IXMAX=   10   IYMAX=   10   IZMAX=   23
   IXMIN=  -10   IYMIN=  -10   IZMIN=  -23


 real space projection operators:
  total allocation   :      21140.75 KBytes
  max/ min on nodes  :       2522.08       2001.03


 parallel 3D FFT for wavefunctions:
    minimum data exchange during FFTs selected (reduces bandwidth)
 parallel 3D FFT for charge:
    minimum data exchange during FFTs selected (reduces bandwidth)


 total amount of memory used by VASP MPI-rank0    74196. kBytes
=======================================================================

   base      :      30000. kBytes
   nonlr-proj:       7423. kBytes
   fftplans  :       3228. kBytes
   grid      :       9428. kBytes
   one-center:        294. kBytes
   wavefun   :      23823. kBytes
 
     INWAV:  cpu time    0.0000: real time    0.0001
 Broyden mixing: mesh for mixing (old mesh)
   NGX = 21   NGY = 21   NGZ = 47
  (NGX  = 84   NGY  = 84   NGZ  =192)
  gives a total of  20727 points

 initial charge density was supplied:
 charge density of overlapping atoms calculated
 number of electron     219.0000000 magnetization      23.0000000
 keeping initial charge density in first step


--------------------------------------------------------------------------------------------------------


 Maximum index for non-local projection operator         1189
 Maximum index for augmentation-charges         1933 (set IRDMAX)


--------------------------------------------------------------------------------------------------------


 First call to EWALD:  gamma=   0.249
 Maximum number of real-space cells 3x 3x 2
 Maximum number of reciprocal cells 2x 2x 4

    FEWALD:  cpu time    0.0018: real time    0.0020


--------------------------------------- Iteration      1(   1)  ---------------------------------------


    POTLOK:  cpu time    0.0872: real time    0.0897
    SETDIJ:  cpu time    0.0168: real time    0.0169
atom =   1  type =  1  l = 0
 
 onsite density matrix
 
spin component  1
 
  1.0989
 
spin component  2
 
  1.0989
 
 occupancies and eigenvectors
 
  o =  1.0989  v =  1.0000  0.0000      0.0000  0.0000
  o =  1.0989  v =  0.0000  1.0000      0.0000  0.0000
atom =   2  type =  1  l = 0
 
 onsite density matrix
 
spin component  1
 
  1.0989
 
spin component  2
 
  1.0989
 
 occupancies and eigenvectors
 
  o =  1.0989  v =  1.0000  0.0000      0.0000  0.0000
  o =  1.0989  v =  0.0000  1.0000      0.0000  0.0000
atom =   3  type =  1  l = 0
 
 onsite density matrix
 
spin component  1
 
  1.0989
 
spin component  2
 
  1.0989
 
 occupancies and eigenvectors
 
  o =  1.0989  v =  1.0000  0.0000      0.0000  0.0000
  o =  1.0989  v =  0.0000  1.0000      0.0000  0.0000
atom =   4  type =  1  l = 0
 
 onsite density matrix
 
spin component  1
 
  1.0989
 
spin component  2
 
  1.0989
 
 occupancies and eigenvectors
 
  o =  1.0989  v =  1.0000  0.0000      0.0000  0.0000
  o =  1.0989  v =  0.0000  1.0000      0.0000  0.0000
atom =   5  type =  1  l = 0
 
 onsite density matrix
 
spin component  1
 
  1.0989
 
spin component  2
 
  1.0989
 
 occupancies and eigenvectors
 
  o =  1.0989  v =  1.0000  0.0000      0.0000  0.0000
  o =  1.0989  v =  0.0000  1.0000      0.0000  0.0000
atom =   6  type =  1  l = 0
 
 onsite density matrix
 
spin component  1
 
  1.0989
 
spin component  2
 
  1.0989
 
 occupancies and eigenvectors
 
  o =  1.0989  v =  1.0000  0.0000      0.0000  0.0000
  o =  1.0989  v =  0.0000  1.0000      0.0000  0.0000
atom =   7  type =  2  l = 2
 
 onsite density matrix
 
spin component  1
 
  0.8272  0.0000  0.0000  0.0000  0.0000
  0.0000  0.8272  0.0000  0.0000  0.0000
  0.0000  0.0000  0.8272  0.0000  0.0000
  0.0000  0.0000  0.0000  0.8272  0.0000
  0.0000  0.0000  0.0000  0.0000  0.8272
 
spin component  2
 
  0.2256  0.0000  0.0000  0.0000  0.0000
  0.0000  0.2256  0.0000  0.0000  0.0000
  0.0000  0.0000  0.2256  0.0000  0.0000
  0.0000  0.0000  0.0000  0.2256  0.0000
  0.0000  0.0000  0.0000  0.0000  0.2256
 
 occupancies and eigenvectors
 
  o =  0.2256  v =  0.0000  0.0000  0.0000  0.0000  0.0000  0.0000  0.0000  1.0000  0.0000  0.0000      0.0000  0.0000  0.0000  0.0000  0.0000  0.0000  0.0000  0.0000  0.0000  0.0000
  o =  0.2256  v =  0.0000  0.0000  0.0000  0.0000  0.0000  1.0000  0.0000  0.0000  0.0000  0.0000      0.0000  0.0000  0.0000  0.0000  0.0000  0.0000  0.0000  0.0000  0.0000  0.0000
  o =  0.2256  v =  0.0000  0.0000  0.0000  0.0000  0.0000  0.0000  1.0000  0.0000  0.0000  0.0000      0.0000  0.0000  0.0000  0.0000  0.0000  0.0000  0.0000  0.0000  0.0000  0.0000
  o =  0.2256  v =  0.0000  0.0000  0.0000  0.0000  0.0000  0.0000  0.0000  0.0000  1.0000  0.0000      0.0000  0.0000  0.0000  0.0000  0.0000  0.0000  0.0000  0.0000  0.0000  0.0000
  o =  0.2256  v =  0.0000  0.0000  0.0000  0.0000  0.0000  0.0000  0.0000  0.0000  0.0000  1.0000      0.0000  0.0000  0.0000  0.0000  0.0000  0.0000  0.0000  0.0000  0.0000  0.0000
  o =  0.8272  v =  0.0000  1.0000  0.0000  0.0000  0.0000  0.0000  0.0000  0.0000  0.0000  0.0000      0.0000  0.0000  0.0000  0.0000  0.0000  0.0000  0.0000  0.0000  0.0000  0.0000
  o =  0.8272  v =  0.0000  0.0000  1.0000  0.0000  0.0000  0.0000  0.0000  0.0000  0.0000  0.0000      0.0000  0.0000  0.0000  0.0000  0.0000  0.0000  0.0000  0.0000  0.0000  0.0000
  o =  0.8272  v =  1.0000  0.0000  0.0000  0.0000  0.0000  0.0000  0.0000  0.0000  0.0000  0.0000      0.0000  0.0000  0.0000  0.0000  0.0000  0.0000  0.0000  0.0000  0.0000  0.0000
  o =  0.8272  v =  0.0000  0.0000  0.0000  1.0000  0.0000  0.0000  0.0000  0.0000  0.0000  0.0000      0.0000  0.0000  0.0000  0.0000  0.0000  0.0000  0.0000  0.0000  0.0000  0.0000
  o =  0.8272  v =  0.0000  0.0000  0.0000  0.0000  1.0000  0.0000  0.0000  0.0000  0.0000  0.0000      0.0000  0.0000  0.0000  0.0000  0.0000  0.0000  0.0000  0.0000  0.0000  0.0000
atom =   8  type =  2  l = 2
 
 onsite density matrix
 
spin component  1
 
  0.8272  0.0000  0.0000  0.0000  0.0000
  0.0000  0.8272  0.0000  0.0000  0.0000
  0.0000  0.0000  0.8272  0.0000  0.0000
  0.0000  0.0000  0.0000  0.8272  0.0000
  0.0000  0.0000  0.0000  0.0000  0.8272
 
spin component  2
 
  0.2256  0.0000  0.0000  0.0000  0.0000
  0.0000  0.2256  0.0000  0.0000  0.0000
  0.0000  0.0000  0.2256  0.0000  0.0000
  0.0000  0.0000  0.0000  0.2256  0.0000
  0.0000  0.0000  0.0000  0.0000  0.2256
 
 occupancies and eigenvectors
 
  o =  0.2256  v =  0.0000  0.0000  0.0000  0.0000  0.0000  0.0000  0.0000  1.0000  0.0000  0.0000      0.0000  0.0000  0.0000  0.0000  0.0000  0.0000  0.0000  0.0000  0.0000  0.0000
  o =  0.2256  v =  0.0000  0.0000  0.0000  0.0000  0.0000  1.0000  0.0000  0.0000  0.0000  0.0000      0.0000  0.0000  0.0000  0.0000  0.0000  0.0000  0.0000  0.0000  0.0000  0.0000
  o =  0.2256  v =  0.0000  0.0000  0.0000  0.0000  0.0000  0.0000  1.0000  0.0000  0.0000  0.0000      0.0000  0.0000  0.0000  0.0000  0.0000  0.0000  0.0000  0.0000  0.0000  0.0000
  o =  0.2256  v =  0.0000  0.0000  0.0000  0.0000  0.0000  0.0000  0.0000  0.0000  1.0000  0.0000      0.0000  0.0000  0.0000  0.0000  0.0000  0.0000  0.0000  0.0000  0.0000  0.0000
  o =  0.2256  v =  0.0000  0.0000  0.0000  0.0000  0.0000  0.0000  0.0000  0.0000  0.0000  1.0000      0.0000  0.0000  0.0000  0.0000  0.0000  0.0000  0.0000  0.0000  0.0000  0.0000
  o =  0.8272  v =  0.0000  1.0000  0.0000  0.0000  0.0000  0.0000  0.0000  0.0000  0.0000  0.0000      0.0000  0.0000  0.0000  0.0000  0.0000  0.0000  0.0000  0.0000  0.0000  0.0000
  o =  0.8272  v =  0.0000  0.0000  1.0000  0.0000  0.0000  0.0000  0.0000  0.0000  0.0000  0.0000      0.0000  0.0000  0.0000  0.0000  0.0000  0.0000  0.0000  0.0000  0.0000  0.0000
  o =  0.8272  v =  1.0000  0.0000  0.0000  0.0000  0.0000  0.0000  0.0000  0.0000  0.0000  0.0000      0.0000  0.0000  0.0000  0.0000  0.0000  0.0000  0.0000  0.0000  0.0000  0.0000
  o =  0.8272  v =  0.0000  0.0000  0.0000  1.0000  0.0000  0.0000  0.0000  0.0000  0.0000  0.0000      0.0000  0.0000  0.0000  0.0000  0.0000  0.0000  0.0000  0.0000  0.0000  0.0000
  o =  0.8272  v =  0.0000  0.0000  0.0000  0.0000  1.0000  0.0000  0.0000  0.0000  0.0000  0.0000      0.0000  0.0000  0.0000  0.0000  0.0000  0.0000  0.0000  0.0000  0.0000  0.0000
atom =   9  type =  2  l = 2
 
 onsite density matrix
 
spin component  1
 
  0.8272  0.0000  0.0000  0.0000  0.0000
  0.0000  0.8272  0.0000  0.0000  0.0000
  0.0000  0.0000  0.8272  0.0000  0.0000
  0.0000  0.0000  0.0000  0.8272  0.0000
  0.0000  0.0000  0.0000  0.0000  0.8272
 
spin component  2
 
  0.2256  0.0000  0.0000  0.0000  0.0000
  0.0000  0.2256  0.0000  0.0000  0.0000
  0.0000  0.0000  0.2256  0.0000  0.0000
  0.0000  0.0000  0.0000  0.2256  0.0000
  0.0000  0.0000  0.0000  0.0000  0.2256
 
 occupancies and eigenvectors
 
  o =  0.2256  v =  0.0000  0.0000  0.0000  0.0000  0.0000  0.0000  0.0000  1.0000  0.0000  0.0000      0.0000  0.0000  0.0000  0.0000  0.0000  0.0000  0.0000  0.0000  0.0000  0.0000
  o =  0.2256  v =  0.0000  0.0000  0.0000  0.0000  0.0000  1.0000  0.0000  0.0000  0.0000  0.0000      0.0000  0.0000  0.0000  0.0000  0.0000  0.0000  0.0000  0.0000  0.0000  0.0000
  o =  0.2256  v =  0.0000  0.0000  0.0000  0.0000  0.0000  0.0000  1.0000  0.0000  0.0000  0.0000      0.0000  0.0000  0.0000  0.0000  0.0000  0.0000  0.0000  0.0000  0.0000  0.0000
  o =  0.2256  v =  0.0000  0.0000  0.0000  0.0000  0.0000  0.0000  0.0000  0.0000  1.0000  0.0000      0.0000  0.0000  0.0000  0.0000  0.0000  0.0000  0.0000  0.0000  0.0000  0.0000
  o =  0.2256  v =  0.0000  0.0000  0.0000  0.0000  0.0000  0.0000  0.0000  0.0000  0.0000  1.0000      0.0000  0.0000  0.0000  0.0000  0.0000  0.0000  0.0000  0.0000  0.0000  0.0000
  o =  0.8272  v =  0.0000  1.0000  0.0000  0.0000  0.0000  0.0000  0.0000  0.0000  0.0000  0.0000      0.0000  0.0000  0.0000  0.0000  0.0000  0.0000  0.0000  0.0000  0.0000  0.0000
  o =  0.8272  v =  0.0000  0.0000  1.0000  0.0000  0.0000  0.0000  0.0000  0.0000  0.0000  0.0000      0.0000  0.0000  0.0000  0.0000  0.0000  0.0000  0.0000  0.0000  0.0000  0.0000
  o =  0.8272  v =  1.0000  0.0000  0.0000  0.0000  0.0000  0.0000  0.0000  0.0000  0.0000  0.0000      0.0000  0.0000  0.0000  0.0000  0.0000  0.0000  0.0000  0.0000  0.0000  0.0000
  o =  0.8272  v =  0.0000  0.0000  0.0000  1.0000  0.0000  0.0000  0.0000  0.0000  0.0000  0.0000      0.0000  0.0000  0.0000  0.0000  0.0000  0.0000  0.0000  0.0000  0.0000  0.0000
  o =  0.8272  v =  0.0000  0.0000  0.0000  0.0000  1.0000  0.0000  0.0000  0.0000  0.0000  0.0000      0.0000  0.0000  0.0000  0.0000  0.0000  0.0000  0.0000  0.0000  0.0000  0.0000
atom =  10  type =  2  l = 2
 
 onsite density matrix
 
spin component  1
 
  0.8272  0.0000  0.0000  0.0000  0.0000
  0.0000  0.8272  0.0000  0.0000  0.0000
  0.0000  0.0000  0.8272  0.0000  0.0000
  0.0000  0.0000  0.0000  0.8272  0.0000
  0.0000  0.0000  0.0000  0.0000  0.8272
 
spin component  2
 
  0.2256  0.0000  0.0000  0.0000  0.0000
  0.0000  0.2256  0.0000  0.0000  0.0000
  0.0000  0.0000  0.2256  0.0000  0.0000
  0.0000  0.0000  0.0000  0.2256  0.0000
  0.0000  0.0000  0.0000  0.0000  0.2256
 
 occupancies and eigenvectors
 
  o =  0.2256  v =  0.0000  0.0000  0.0000  0.0000  0.0000  0.0000  0.0000  1.0000  0.0000  0.0000      0.0000  0.0000  0.0000  0.0000  0.0000  0.0000  0.0000  0.0000  0.0000  0.0000
  o =  0.2256  v =  0.0000  0.0000  0.0000  0.0000  0.0000  1.0000  0.0000  0.0000  0.0000  0.0000      0.0000  0.0000  0.0000  0.0000  0.0000  0.0000  0.0000  0.0000  0.0000  0.0000
  o =  0.2256  v =  0.0000  0.0000  0.0000  0.0000  0.0000  0.0000  1.0000  0.0000  0.0000  0.0000      0.0000  0.0000  0.0000  0.0000  0.0000  0.0000  0.0000  0.0000  0.0000  0.0000
  o =  0.2256  v =  0.0000  0.0000  0.0000  0.0000  0.0000  0.0000  0.0000  0.0000  1.0000  0.0000      0.0000  0.0000  0.0000  0.0000  0.0000  0.0000  0.0000  0.0000  0.0000  0.0000
  o =  0.2256  v =  0.0000  0.0000  0.0000  0.0000  0.0000  0.0000  0.0000  0.0000  0.0000  1.0000      0.0000  0.0000  0.0000  0.0000  0.0000  0.0000  0.0000  0.0000  0.0000  0.0000
  o =  0.8272  v =  0.0000  1.0000  0.0000  0.0000  0.0000  0.0000  0.0000  0.0000  0.0000  0.0000      0.0000  0.0000  0.0000  0.0000  0.0000  0.0000  0.0000  0.0000  0.0000  0.0000
  o =  0.8272  v =  0.0000  0.0000  1.0000  0.0000  0.0000  0.0000  0.0000  0.0000  0.0000  0.0000      0.0000  0.0000  0.0000  0.0000  0.0000  0.0000  0.0000  0.0000  0.0000  0.0000
  o =  0.8272  v =  1.0000  0.0000  0.0000  0.0000  0.0000  0.0000  0.0000  0.0000  0.0000  0.0000      0.0000  0.0000  0.0000  0.0000  0.0000  0.0000  0.0000  0.0000  0.0000  0.0000
  o =  0.8272  v =  0.0000  0.0000  0.0000  1.0000  0.0000  0.0000  0.0000  0.0000  0.0000  0.0000      0.0000  0.0000  0.0000  0.0000  0.0000  0.0000  0.0000  0.0000  0.0000  0.0000
  o =  0.8272  v =  0.0000  0.0000  0.0000  0.0000  1.0000  0.0000  0.0000  0.0000  0.0000  0.0000      0.0000  0.0000  0.0000  0.0000  0.0000  0.0000  0.0000  0.0000  0.0000  0.0000
atom =  11  type =  2  l = 2
 
 onsite density matrix
 
spin component  1
 
  0.8272  0.0000  0.0000  0.0000  0.0000
  0.0000  0.8272  0.0000  0.0000  0.0000
  0.0000  0.0000  0.8272  0.0000  0.0000
  0.0000  0.0000  0.0000  0.8272  0.0000
  0.0000  0.0000  0.0000  0.0000  0.8272
 
spin component  2
 
  0.2256  0.0000  0.0000  0.0000  0.0000
  0.0000  0.2256  0.0000  0.0000  0.0000
  0.0000  0.0000  0.2256  0.0000  0.0000
  0.0000  0.0000  0.0000  0.2256  0.0000
  0.0000  0.0000  0.0000  0.0000  0.2256
 
 occupancies and eigenvectors
 
  o =  0.2256  v =  0.0000  0.0000  0.0000  0.0000  0.0000  0.0000  0.0000  1.0000  0.0000  0.0000      0.0000  0.0000  0.0000  0.0000  0.0000  0.0000  0.0000  0.0000  0.0000  0.0000
  o =  0.2256  v =  0.0000  0.0000  0.0000  0.0000  0.0000  1.0000  0.0000  0.0000  0.0000  0.0000      0.0000  0.0000  0.0000  0.0000  0.0000  0.0000  0.0000  0.0000  0.0000  0.0000
  o =  0.2256  v =  0.0000  0.0000  0.0000  0.0000  0.0000  0.0000  1.0000  0.0000  0.0000  0.0000      0.0000  0.0000  0.0000  0.0000  0.0000  0.0000  0.0000  0.0000  0.0000  0.0000
  o =  0.2256  v =  0.0000  0.0000  0.0000  0.0000  0.0000  0.0000  0.0000  0.0000  1.0000  0.0000      0.0000  0.0000  0.0000  0.0000  0.0000  0.0000  0.0000  0.0000  0.0000  0.0000
  o =  0.2256  v =  0.0000  0.0000  0.0000  0.0000  0.0000  0.0000  0.0000  0.0000  0.0000  1.0000      0.0000  0.0000  0.0000  0.0000  0.0000  0.0000  0.0000  0.0000  0.0000  0.0000
  o =  0.8272  v =  0.0000  1.0000  0.0000  0.0000  0.0000  0.0000  0.0000  0.0000  0.0000  0.0000      0.0000  0.0000  0.0000  0.0000  0.0000  0.0000  0.0000  0.0000  0.0000  0.0000
  o =  0.8272  v =  0.0000  0.0000  1.0000  0.0000  0.0000  0.0000  0.0000  0.0000  0.0000  0.0000      0.0000  0.0000  0.0000  0.0000  0.0000  0.0000  0.0000  0.0000  0.0000  0.0000
  o =  0.8272  v =  1.0000  0.0000  0.0000  0.0000  0.0000  0.0000  0.0000  0.0000  0.0000  0.0000      0.0000  0.0000  0.0000  0.0000  0.0000  0.0000  0.0000  0.0000  0.0000  0.0000
  o =  0.8272  v =  0.0000  0.0000  0.0000  1.0000  0.0000  0.0000  0.0000  0.0000  0.0000  0.0000      0.0000  0.0000  0.0000  0.0000  0.0000  0.0000  0.0000  0.0000  0.0000  0.0000
  o =  0.8272  v =  0.0000  0.0000  0.0000  0.0000  1.0000  0.0000  0.0000  0.0000  0.0000  0.0000      0.0000  0.0000  0.0000  0.0000  0.0000  0.0000  0.0000  0.0000  0.0000  0.0000
atom =  12  type =  3  l = 2
 
 onsite density matrix
 
spin component  1
 
  1.1008  0.0000  0.0000  0.0000  0.0000
  0.0000  1.1008  0.0000  0.0000  0.0000
  0.0000  0.0000  1.1008  0.0000  0.0000
  0.0000  0.0000  0.0000  1.1008  0.0000
  0.0000  0.0000  0.0000  0.0000  1.1008
 
spin component  2
 
  0.5927  0.0000  0.0000  0.0000  0.0000
  0.0000  0.5927  0.0000  0.0000  0.0000
  0.0000  0.0000  0.5927  0.0000  0.0000
  0.0000  0.0000  0.0000  0.5927  0.0000
  0.0000  0.0000  0.0000  0.0000  0.5927
 
 occupancies and eigenvectors
 
  o =  0.5927  v =  0.0000  0.0000  0.0000  0.0000  0.0000  1.0000  0.0000  0.0000  0.0000  0.0000      0.0000  0.0000  0.0000  0.0000  0.0000  0.0000  0.0000  0.0000  0.0000  0.0000
  o =  0.5927  v =  0.0000  0.0000  0.0000  0.0000  0.0000  0.0000  1.0000  0.0000  0.0000  0.0000      0.0000  0.0000  0.0000  0.0000  0.0000  0.0000  0.0000  0.0000  0.0000  0.0000
  o =  0.5927  v =  0.0000  0.0000  0.0000  0.0000  0.0000  0.0000  0.0000  1.0000  0.0000  0.0000      0.0000  0.0000  0.0000  0.0000  0.0000  0.0000  0.0000  0.0000  0.0000  0.0000
  o =  0.5927  v =  0.0000  0.0000  0.0000  0.0000  0.0000  0.0000  0.0000  0.0000  1.0000  0.0000      0.0000  0.0000  0.0000  0.0000  0.0000  0.0000  0.0000  0.0000  0.0000  0.0000
  o =  0.5927  v =  0.0000  0.0000  0.0000  0.0000  0.0000  0.0000  0.0000  0.0000  0.0000  1.0000      0.0000  0.0000  0.0000  0.0000  0.0000  0.0000  0.0000  0.0000  0.0000  0.0000
  o =  1.1008  v =  1.0000  0.0000  0.0000  0.0000  0.0000  0.0000  0.0000  0.0000  0.0000  0.0000      0.0000  0.0000  0.0000  0.0000  0.0000  0.0000  0.0000  0.0000  0.0000  0.0000
  o =  1.1008  v =  0.0000  1.0000  0.0000  0.0000  0.0000  0.0000  0.0000  0.0000  0.0000  0.0000      0.0000  0.0000  0.0000  0.0000  0.0000  0.0000  0.0000  0.0000  0.0000  0.0000
  o =  1.1008  v =  0.0000  0.0000  1.0000  0.0000  0.0000  0.0000  0.0000  0.0000  0.0000  0.0000      0.0000  0.0000  0.0000  0.0000  0.0000  0.0000  0.0000  0.0000  0.0000  0.0000
  o =  1.1008  v =  0.0000  0.0000  0.0000  1.0000  0.0000  0.0000  0.0000  0.0000  0.0000  0.0000      0.0000  0.0000  0.0000  0.0000  0.0000  0.0000  0.0000  0.0000  0.0000  0.0000
  o =  1.1008  v =  0.0000  0.0000  0.0000  0.0000  1.0000  0.0000  0.0000  0.0000  0.0000  0.0000      0.0000  0.0000  0.0000  0.0000  0.0000  0.0000  0.0000  0.0000  0.0000  0.0000
atom =  13  type =  4  l = 0
 
 onsite density matrix
 
spin component  1
 
  0.8190
 
spin component  2
 
  0.8190
 
 occupancies and eigenvectors
 
  o =  0.8190  v =  1.0000  0.0000      0.0000  0.0000
  o =  0.8190  v =  0.0000  1.0000      0.0000  0.0000
atom =  14  type =  4  l = 0
 
 onsite density matrix
 
spin component  1
 
  0.8190
 
spin component  2
 
  0.8190
 
 occupancies and eigenvectors
 
  o =  0.8190  v =  1.0000  0.0000      0.0000  0.0000
  o =  0.8190  v =  0.0000  1.0000      0.0000  0.0000
atom =  15  type =  4  l = 0
 
 onsite density matrix
 
spin component  1
 
  0.8190
 
spin component  2
 
  0.8190
 
 occupancies and eigenvectors
 
  o =  0.8190  v =  1.0000  0.0000      0.0000  0.0000
  o =  0.8190  v =  0.0000  1.0000      0.0000  0.0000
atom =  16  type =  4  l = 0
 
 onsite density matrix
 
spin component  1
 
  0.8190
 
spin component  2
 
  0.8190
 
 occupancies and eigenvectors
 
  o =  0.8190  v =  1.0000  0.0000      0.0000  0.0000
  o =  0.8190  v =  0.0000  1.0000      0.0000  0.0000
atom =  17  type =  4  l = 0
 
 onsite density matrix
 
spin component  1
 
  0.8190
 
spin component  2
 
  0.8190
 
 occupancies and eigenvectors
 
  o =  0.8190  v =  1.0000  0.0000      0.0000  0.0000
  o =  0.8190  v =  0.0000  1.0000      0.0000  0.0000
atom =  18  type =  4  l = 0
 
 onsite density matrix
 
spin component  1
 
  0.8190
 
spin component  2
 
  0.8190
 
 occupancies and eigenvectors
 
  o =  0.8190  v =  1.0000  0.0000      0.0000  0.0000
  o =  0.8190  v =  0.0000  1.0000      0.0000  0.0000
atom =  19  type =  4  l = 0
 
 onsite density matrix
 
spin component  1
 
  0.8190
 
spin component  2
 
  0.8190
 
 occupancies and eigenvectors
 
  o =  0.8190  v =  1.0000  0.0000      0.0000  0.0000
  o =  0.8190  v =  0.0000  1.0000      0.0000  0.0000
atom =  20  type =  4  l = 0
 
 onsite density matrix
 
spin component  1
 
  0.8190
 
spin component  2
 
  0.8190
 
 occupancies and eigenvectors
 
  o =  0.8190  v =  1.0000  0.0000      0.0000  0.0000
  o =  0.8190  v =  0.0000  1.0000      0.0000  0.0000
atom =  21  type =  4  l = 0
 
 onsite density matrix
 
spin component  1
 
  0.8190
 
spin component  2
 
  0.8190
 
 occupancies and eigenvectors
 
  o =  0.8190  v =  1.0000  0.0000      0.0000  0.0000
  o =  0.8190  v =  0.0000  1.0000      0.0000  0.0000
atom =  22  type =  4  l = 0
 
 onsite density matrix
 
spin component  1
 
  0.8190
 
spin component  2
 
  0.8190
 
 occupancies and eigenvectors
 
  o =  0.8190  v =  1.0000  0.0000      0.0000  0.0000
  o =  0.8190  v =  0.0000  1.0000      0.0000  0.0000
atom =  23  type =  4  l = 0
 
 onsite density matrix
 
spin component  1
 
  0.8190
 
spin component  2
 
  0.8190
 
 occupancies and eigenvectors
 
  o =  0.8190  v =  1.0000  0.0000      0.0000  0.0000
  o =  0.8190  v =  0.0000  1.0000      0.0000  0.0000
atom =  24  type =  4  l = 0
 
 onsite density matrix
 
spin component  1
 
  0.8190
 
spin component  2
 
  0.8190
 
 occupancies and eigenvectors
 
  o =  0.8190  v =  1.0000  0.0000      0.0000  0.0000
  o =  0.8190  v =  0.0000  1.0000      0.0000  0.0000
atom =  25  type =  4  l = 0
 
 onsite density matrix
 
spin component  1
 
  0.8190
 
spin component  2
 
  0.8190
 
 occupancies and eigenvectors
 
  o =  0.8190  v =  1.0000  0.0000      0.0000  0.0000
  o =  0.8190  v =  0.0000  1.0000      0.0000  0.0000
atom =  26  type =  4  l = 0
 
 onsite density matrix
 
spin component  1
 
  0.8190
 
spin component  2
 
  0.8190
 
 occupancies and eigenvectors
 
  o =  0.8190  v =  1.0000  0.0000      0.0000  0.0000
  o =  0.8190  v =  0.0000  1.0000      0.0000  0.0000
atom =  27  type =  4  l = 0
 
 onsite density matrix
 
spin component  1
 
  0.8190
 
spin component  2
 
  0.8190
 
 occupancies and eigenvectors
 
  o =  0.8190  v =  1.0000  0.0000      0.0000  0.0000
  o =  0.8190  v =  0.0000  1.0000      0.0000  0.0000
atom =  28  type =  4  l = 0
 
 onsite density matrix
 
spin component  1
 
  0.8190
 
spin component  2
 
  0.8190
 
 occupancies and eigenvectors
 
  o =  0.8190  v =  1.0000  0.0000      0.0000  0.0000
  o =  0.8190  v =  0.0000  1.0000      0.0000  0.0000
atom =  29  type =  4  l = 0
 
 onsite density matrix
 
spin component  1
 
  0.8190
 
spin component  2
 
  0.8190
 
 occupancies and eigenvectors
 
  o =  0.8190  v =  1.0000  0.0000      0.0000  0.0000
  o =  0.8190  v =  0.0000  1.0000      0.0000  0.0000
atom =  30  type =  4  l = 0
 
 onsite density matrix
 
spin component  1
 
  0.8190
 
spin component  2
 
  0.8190
 
 occupancies and eigenvectors
 
  o =  0.8190  v =  1.0000  0.0000      0.0000  0.0000
  o =  0.8190  v =  0.0000  1.0000      0.0000  0.0000
     EDDAV:  cpu time    3.8048: real time    3.8193
 BZINTS: Fermi energy: 30.477371;219.000000 electrons
         Band energy:3214.555493;  BLOECHL correction: -0.120955
       DOS:  cpu time    0.0168: real time    0.0190
    --------------------------------------------
      LOOP:  cpu time    3.9256: real time    3.9449

 eigenvalue-minimisations  :  6192
 total energy-change (2. order) : 0.3523760E+04  (-0.7561435E+04)
 number of electron     219.0000000 magnetization      23.0000000
 augmentation part      219.0000000 magnetization      23.0000000

 Free energy of the ion-electron system (eV)
  ---------------------------------------------------
  alpha Z        PSCENC =       961.80710609
  Ewald energy   TEWEN  =    -14590.36743468
  -Hartree energ DENC   =     -2907.76249244
  -exchange      EXHF   =         0.00000000
  -V(xc)+E(xc)   XCENC  =       666.65647767
  PAW double counting   =     13087.43818639   -13048.29315604
  entropy T*S    EENTRO =         0.00000000
  eigenvalues    EBANDS =      3214.55549268
  atomic energy  EATOM  =     16139.72541369
  Solvation  Ediel_sol  =         0.00000000
  ---------------------------------------------------
  free energy    TOTEN  =      3523.75959336 eV

  energy without entropy =     3523.75959336  energy(sigma->0) =     3523.75959336


--------------------------------------------------------------------------------------------------------




--------------------------------------- Iteration      1(   2)  ---------------------------------------


     EDDAV:  cpu time    3.9169: real time    3.9292
 BZINTS: Fermi energy: 16.128542;219.000000 electrons
         Band energy: 909.628743;  BLOECHL correction: -0.041541
       DOS:  cpu time    0.0173: real time    0.0173
    --------------------------------------------
      LOOP:  cpu time    3.9342: real time    3.9466

 eigenvalue-minimisations  :  6456
 total energy-change (2. order) :-0.2304927E+04  (-0.2067323E+04)
 number of electron     219.0000000 magnetization      23.0000000
 augmentation part      219.0000000 magnetization      23.0000000

 Free energy of the ion-electron system (eV)
  ---------------------------------------------------
  alpha Z        PSCENC =       961.80710609
  Ewald energy   TEWEN  =    -14590.36743468
  -Hartree energ DENC   =     -2907.76249244
  -exchange      EXHF   =         0.00000000
  -V(xc)+E(xc)   XCENC  =       666.65647767
  PAW double counting   =     13087.43818639   -13048.29315604
  entropy T*S    EENTRO =         0.00000000
  eigenvalues    EBANDS =       909.62874265
  atomic energy  EATOM  =     16139.72541369
  Solvation  Ediel_sol  =         0.00000000
  ---------------------------------------------------
  free energy    TOTEN  =      1218.83284333 eV

  energy without entropy =     1218.83284333  energy(sigma->0) =     1218.83284333


--------------------------------------------------------------------------------------------------------




--------------------------------------- Iteration      1(   3)  ---------------------------------------


     EDDAV:  cpu time    4.0881: real time    4.1032
 BZINTS: Fermi energy: 11.821008;219.000000 electrons
         Band energy: -57.710500;  BLOECHL correction: -0.031711
       DOS:  cpu time    0.0171: real time    0.0171
    --------------------------------------------
      LOOP:  cpu time    4.1052: real time    4.1203

 eigenvalue-minimisations  :  6784
 total energy-change (2. order) :-0.9673392E+03  (-0.8717807E+03)
 number of electron     219.0000000 magnetization      23.0000000
 augmentation part      219.0000000 magnetization      23.0000000

 Free energy of the ion-electron system (eV)
  ---------------------------------------------------
  alpha Z        PSCENC =       961.80710609
  Ewald energy   TEWEN  =    -14590.36743468
  -Hartree energ DENC   =     -2907.76249244
  -exchange      EXHF   =         0.00000000
  -V(xc)+E(xc)   XCENC  =       666.65647767
  PAW double counting   =     13087.43818639   -13048.29315604
  entropy T*S    EENTRO =         0.00000000
  eigenvalues    EBANDS =       -57.71050046
  atomic energy  EATOM  =     16139.72541369
  Solvation  Ediel_sol  =         0.00000000
  ---------------------------------------------------
  free energy    TOTEN  =       251.49360022 eV

  energy without entropy =      251.49360022  energy(sigma->0) =      251.49360022


--------------------------------------------------------------------------------------------------------




--------------------------------------- Iteration      1(   4)  ---------------------------------------


     EDDAV:  cpu time    5.2299: real time    5.2501
 BZINTS: Fermi energy: 11.065565;219.000000 electrons
         Band energy:-479.125449;  BLOECHL correction: -0.006685
       DOS:  cpu time    0.0159: real time    0.0159
    --------------------------------------------
      LOOP:  cpu time    5.2458: real time    5.2660

 eigenvalue-minimisations  :  9208
 total energy-change (2. order) :-0.4214149E+03  (-0.3945369E+03)
 number of electron     219.0000000 magnetization      23.0000000
 augmentation part      219.0000000 magnetization      23.0000000

 Free energy of the ion-electron system (eV)
  ---------------------------------------------------
  alpha Z        PSCENC =       961.80710609
  Ewald energy   TEWEN  =    -14590.36743468
  -Hartree energ DENC   =     -2907.76249244
  -exchange      EXHF   =         0.00000000
  -V(xc)+E(xc)   XCENC  =       666.65647767
  PAW double counting   =     13087.43818639   -13048.29315604
  entropy T*S    EENTRO =         0.00000000
  eigenvalues    EBANDS =      -479.12544909
  atomic energy  EATOM  =     16139.72541369
  Solvation  Ediel_sol  =         0.00000000
  ---------------------------------------------------
  free energy    TOTEN  =      -169.92134841 eV

  energy without entropy =     -169.92134841  energy(sigma->0) =     -169.92134841


--------------------------------------------------------------------------------------------------------




--------------------------------------- Iteration      1(   5)  ---------------------------------------


     EDDAV:  cpu time    5.7457: real time    5.7636
 BZINTS: Fermi energy: 10.756169;219.000000 electrons
         Band energy:-570.500555;  BLOECHL correction: -0.044566
       DOS:  cpu time    0.0164: real time    0.0164
    CHARGE:  cpu time    0.1838: real time    0.1847
    MIXING:  cpu time    0.0035: real time    0.0042
    --------------------------------------------
      LOOP:  cpu time    5.9494: real time    5.9690

 eigenvalue-minimisations  : 10280
 total energy-change (2. order) :-0.9137511E+02  (-0.8828225E+02)
 number of electron     219.0000066 magnetization      21.7537807
 augmentation part       23.3815762 magnetization      14.6707326

 Broyden mixing:
  rms(total) = 0.67829E+01    rms(broyden)= 0.67825E+01
  rms(prec ) = 0.76650E+01
  weight for this iteration     100.00

 Free energy of the ion-electron system (eV)
  ---------------------------------------------------
  alpha Z        PSCENC =       961.80710609
  Ewald energy   TEWEN  =    -14590.36743468
  -Hartree energ DENC   =     -2907.76249244
  -exchange      EXHF   =         0.00000000
  -V(xc)+E(xc)   XCENC  =       666.65647767
  PAW double counting   =     13087.43818639   -13048.29315604
  entropy T*S    EENTRO =         0.00000000
  eigenvalues    EBANDS =      -570.50055481
  atomic energy  EATOM  =     16139.72541369
  Solvation  Ediel_sol  =         0.00000000
  ---------------------------------------------------
  free energy    TOTEN  =      -261.29645413 eV

  energy without entropy =     -261.29645413  energy(sigma->0) =     -261.29645413


--------------------------------------------------------------------------------------------------------




--------------------------------------- Iteration      1(   6)  ---------------------------------------


    POTLOK:  cpu time    0.0844: real time    0.0871
    SETDIJ:  cpu time    0.0148: real time    0.0149
atom =   1  type =  1  l = 0
 
 onsite density matrix
 
spin component  1
 
  1.0564
 
spin component  2
 
  1.0562
 
 occupancies and eigenvectors
 
  o =  1.0562  v =  0.0000  1.0000      0.0000  0.0000
  o =  1.0564  v =  1.0000  0.0000      0.0000  0.0000
atom =   2  type =  1  l = 0
 
 onsite density matrix
 
spin component  1
 
  1.0561
 
spin component  2
 
  1.0559
 
 occupancies and eigenvectors
 
  o =  1.0559  v =  0.0000  1.0000      0.0000  0.0000
  o =  1.0561  v =  1.0000  0.0000      0.0000  0.0000
atom =   3  type =  1  l = 0
 
 onsite density matrix
 
spin component  1
 
  1.0564
 
spin component  2
 
  1.0562
 
 occupancies and eigenvectors
 
  o =  1.0562  v =  0.0000  1.0000      0.0000  0.0000
  o =  1.0564  v =  1.0000  0.0000      0.0000  0.0000
atom =   4  type =  1  l = 0
 
 onsite density matrix
 
spin component  1
 
  1.0564
 
spin component  2
 
  1.0562
 
 occupancies and eigenvectors
 
  o =  1.0562  v =  0.0000  1.0000      0.0000  0.0000
  o =  1.0564  v =  1.0000  0.0000      0.0000  0.0000
atom =   5  type =  1  l = 0
 
 onsite density matrix
 
spin component  1
 
  1.0561
 
spin component  2
 
  1.0559
 
 occupancies and eigenvectors
 
  o =  1.0559  v =  0.0000  1.0000      0.0000  0.0000
  o =  1.0561  v =  1.0000  0.0000      0.0000  0.0000
atom =   6  type =  1  l = 0
 
 onsite density matrix
 
spin component  1
 
  1.0564
 
spin component  2
 
  1.0562
 
 occupancies and eigenvectors
 
  o =  1.0562  v =  0.0000  1.0000      0.0000  0.0000
  o =  1.0564  v =  1.0000  0.0000      0.0000  0.0000
atom =   7  type =  2  l = 2
 
 onsite density matrix
 
spin component  1
 
  0.9419  0.0000 -0.0000  0.0000 -0.0000
  0.0000  0.9413  0.0000 -0.0000 -0.0000
 -0.0000  0.0000  0.4905 -0.0000  0.0000
  0.0000 -0.0000 -0.0000  0.9413 -0.0000
 -0.0000 -0.0000  0.0000 -0.0000  0.4848
 
spin component  2
 
  0.0333 -0.0000  0.0000 -0.0000 -0.0000
 -0.0000  0.0339 -0.0000  0.0000  0.0000
  0.0000 -0.0000  0.3515  0.0000  0.0000
 -0.0000  0.0000  0.0000  0.0339  0.0000
 -0.0000  0.0000  0.0000  0.0000  0.3589
 
 occupancies and eigenvectors
 
  o =  0.0333  v =  0.0000  0.0000  0.0000  0.0000  0.0000  1.0000  0.0000  0.0000  0.0000  0.0000      0.0000  0.0000  0.0000  0.0000  0.0000  0.0000  0.0000  0.0000  0.0000  0.0000
  o =  0.0339  v =  0.0000  0.0000  0.0000  0.0000  0.0000  0.0000 -0.5190  0.0000  0.8548  0.0000      0.0000  0.0000  0.0000  0.0000  0.0000  0.0000  0.0000  0.0000  0.0000  0.0000
  o =  0.0339  v =  0.0000  0.0000  0.0000  0.0000  0.0000  0.0000 -0.8548  0.0000 -0.5190  0.0000      0.0000  0.0000  0.0000  0.0000  0.0000  0.0000  0.0000  0.0000  0.0000  0.0000
  o =  0.3515  v =  0.0000  0.0000  0.0000  0.0000  0.0000  0.0000 -0.0000 -1.0000 -0.0000  0.0000      0.0000  0.0000  0.0000  0.0000  0.0000  0.0000  0.0000  0.0000  0.0000  0.0000
  o =  0.3589  v =  0.0000  0.0000  0.0000  0.0000  0.0000  0.0000 -0.0000 -0.0000  0.0000 -1.0000      0.0000  0.0000  0.0000  0.0000  0.0000  0.0000  0.0000  0.0000  0.0000  0.0000
  o =  0.4848  v =  0.0000 -0.0000  0.0000 -0.0000 -1.0000  0.0000  0.0000  0.0000  0.0000  0.0000      0.0000  0.0000  0.0000  0.0000  0.0000  0.0000  0.0000  0.0000  0.0000  0.0000
  o =  0.4905  v =  0.0000 -0.0000  1.0000 -0.0000  0.0000  0.0000  0.0000  0.0000  0.0000  0.0000      0.0000  0.0000  0.0000  0.0000  0.0000  0.0000  0.0000  0.0000  0.0000  0.0000
  o =  0.9413  v =  0.0000  0.7297  0.0000 -0.6838  0.0000  0.0000  0.0000  0.0000  0.0000  0.0000      0.0000  0.0000  0.0000  0.0000  0.0000  0.0000  0.0000  0.0000  0.0000  0.0000
  o =  0.9413  v =  0.0000 -0.6838 -0.0000 -0.7297  0.0000  0.0000  0.0000  0.0000  0.0000  0.0000      0.0000  0.0000  0.0000  0.0000  0.0000  0.0000  0.0000  0.0000  0.0000  0.0000
  o =  0.9419  v =  1.0000  0.0000  0.0000  0.0000  0.0000  0.0000  0.0000  0.0000  0.0000  0.0000      0.0000  0.0000  0.0000  0.0000  0.0000  0.0000  0.0000  0.0000  0.0000  0.0000
atom =   8  type =  2  l = 2
 
[...]
 -0.000  -0.001   0.000  -0.001   0.000  -0.000  -0.001   0.000  -0.001   0.000   0.000  -0.000   0.000   0.000   0.000  -0.000
  0.000   0.000  -0.000  -0.000   0.000  -0.000  -0.000   0.000  -0.000  -0.000   0.000  -0.000  -0.000   0.000  -0.000  -0.000
  0.000   0.000  -0.000   0.000   0.000  -0.000   0.000   0.000   0.000   0.000   0.000   0.000  -0.001   0.000   0.000   0.000
  0.000   0.000   0.000   0.000  -0.001   0.000   0.000  -0.001   0.000  -0.000   0.000  -0.001  -0.000  -0.000   0.000   0.000
  0.000  -0.000  -0.000   0.000   0.000  -0.001   0.000   0.000  -0.000  -0.002  -0.000  -0.000   0.000  -0.000   0.000   0.000
  0.000  -0.007  -0.000  -0.000   0.000  -0.000   0.001   0.000  -0.003  -0.000   0.000   0.000  -0.000   0.001   0.000  -0.000
  0.000   0.000  -0.000   0.000   0.000  -0.001  -0.000   0.000   0.000   0.001  -0.000   0.000  -0.000   0.000  -0.000   0.000
  0.000   0.001  -0.000  -0.000   0.000  -0.000   0.001   0.000   0.001  -0.000   0.000  -0.000   0.000  -0.000   0.000   0.000
  0.000  -0.000   0.000   0.000  -0.000   0.000   0.000  -0.001   0.000   0.000   0.000   0.001   0.000  -0.000  -0.000   0.000
  0.000   0.000   0.000  -0.000  -0.000   0.000   0.000   0.000   0.000  -0.000  -0.000   0.000   0.003   0.000   0.000  -0.000
  0.000  -0.000  -0.000   0.000   0.000  -0.000  -0.000   0.001   0.000   0.000   0.000   0.002  -0.000   0.000  -0.000  -0.000


------------------------ aborting loop because EDIFF is reached ----------------------------------------


 


 total charge     
 
# of ion       s       p       d       f       tot
--------------------------------------------------
    1        1.998   5.695   0.470   0.182   8.345
    2        1.998   5.696   0.476   0.184   8.354
    3        1.998   5.694   0.472   0.181   8.346
    4        1.998   5.694   0.472   0.181   8.346
    5        1.998   5.696   0.476   0.184   8.354
    6        1.998   5.695   0.470   0.182   8.345
    7        0.311   0.463   4.908   0.000   5.682
    8        0.318   0.482   4.879   0.000   5.679
    9        0.337   0.523   4.861   0.000   5.721
   10        0.311   0.462   4.908   0.000   5.682
   11        0.318   0.482   4.893   0.000   5.693
   12        0.380   0.534   8.306   0.000   9.220
   13        1.563   3.456   0.000   0.000   5.019
   14        1.566   3.452   0.000   0.000   5.018
   15        1.566   3.452   0.000   0.000   5.018
   16        1.563   3.455   0.000   0.000   5.019
   17        1.558   3.452   0.000   0.000   5.010
   18        1.558   3.452   0.000   0.000   5.010
   19        1.564   3.455   0.000   0.000   5.018
   20        1.564   3.457   0.000   0.000   5.021
   21        1.560   3.456   0.000   0.000   5.016
   22        1.564   3.457   0.000   0.000   5.020
   23        1.564   3.459   0.000   0.000   5.023
   24        1.560   3.456   0.000   0.000   5.016
   25        1.564   3.457   0.000   0.000   5.021
   26        1.564   3.460   0.000   0.000   5.024
   27        1.560   3.456   0.000   0.000   5.015
   28        1.564   3.450   0.000   0.000   5.014
   29        1.564   3.453   0.000   0.000   5.017
   30        1.560   3.456   0.000   0.000   5.015
--------------------------------------------------
tot         42.089  99.306  35.591   1.095 178.081

 


 magnetization (x)
 
# of ion       s       p       d       f       tot
--------------------------------------------------
    1        0.001   0.000   0.010   0.006   0.017
    2        0.001   0.001   0.013   0.008   0.022
    3        0.001   0.001   0.010   0.006   0.017
    4        0.001   0.001   0.010   0.006   0.017
    5        0.001   0.001   0.013   0.008   0.022
    6        0.001   0.000   0.010   0.006   0.017
    7        0.026   0.026   3.858   0.000   3.910
    8        0.025   0.029   3.744   0.000   3.798
    9        0.028   0.038   3.520   0.000   3.586
   10        0.026   0.025   3.859   0.000   3.910
   11        0.025   0.029   3.758   0.000   3.812
   12        0.008  -0.005   1.714   0.000   1.716
   13        0.005  -0.041   0.000   0.000  -0.036
   14        0.008  -0.035   0.000   0.000  -0.027
   15        0.008  -0.035   0.000   0.000  -0.027
   16        0.005  -0.041   0.000   0.000  -0.036
   17        0.005  -0.000   0.000   0.000   0.005
   18        0.005  -0.000   0.000   0.000   0.005
   19        0.006  -0.036   0.000   0.000  -0.030
   20        0.006  -0.033   0.000   0.000  -0.027
   21        0.005  -0.007   0.000   0.000  -0.002
   22        0.006  -0.034   0.000   0.000  -0.028
   23        0.006  -0.031   0.000   0.000  -0.025
   24        0.005  -0.007   0.000   0.000  -0.002
   25        0.006  -0.034   0.000   0.000  -0.028
   26        0.006  -0.031   0.000   0.000  -0.025
   27        0.005  -0.007   0.000   0.000  -0.003
   28        0.006  -0.040   0.000   0.000  -0.034
   29        0.006  -0.038   0.000   0.000  -0.032
   30        0.005  -0.007   0.000   0.000  -0.003
--------------------------------------------------
tot          0.245  -0.311  20.517   0.039  20.491

 
    CHARGE:  cpu time    0.1822: real time    0.1826
    FORLOC:  cpu time    0.0186: real time    0.0186
    FORNL :  cpu time    1.1034: real time    1.1067
    STRESS:  cpu time    3.5591: real time    3.5700
    FORCOR:  cpu time    0.0923: real time    0.0926
    FORHAR:  cpu time    0.0200: real time    0.0201
    MIXING:  cpu time    0.0067: real time    0.0067
    OFIELD:  cpu time    0.0001: real time    0.0002

  FORCE on cell =-STRESS in cart. coord.  units (eV):
  Direction    XX          YY          ZZ          XY          YZ          ZX
  --------------------------------------------------------------------------------------
  Alpha Z   961.80711   961.80711   961.80711
  Ewald   -4836.41615 -4836.41615 -4917.58744    -0.00000     0.00000    -0.00002
  Hartree  1028.84722  1028.84721   966.61784     0.00000    -0.00000     0.00004
  E(xc)   -1005.20237 -1005.20237 -1005.14222     0.00000    -0.00000     0.00001
  Local    -557.97762  -557.97778  -417.33006     0.00000    -0.00000    -0.00043
  n-local   389.98356   389.65195   389.38106     1.80784    -0.08124     0.15263
  augment   198.32134   198.32269   199.14855     0.00000     0.00000     0.00014
  Kinetic  3820.42893  3821.25459  3822.31120    13.70825     0.29246    -0.51713
  Fock        0.00000     0.00000     0.00000     0.00000     0.00000     0.00000
  -------------------------------------------------------------------------------------
  Total       0.03962     0.03962    -0.79398     0.00000     0.00000     0.00000
  in kB       0.17527     0.17527    -3.51251     0.00000     0.00000     0.00000
  external pressure =       -1.05 kB  Pullay stress =        0.00 kB


 VOLUME and BASIS-vectors are now :
 -----------------------------------------------------------------------------
  energy-cutoff  :      520.00
  volume of cell :      362.16
      direct lattice vectors                 reciprocal lattice vectors
     3.917478164 -3.917478164  0.000000000     0.127633130 -0.127633130  0.042375227
     3.917478164  3.917478164  0.000000000     0.127633130  0.127633130  0.042375227
    -3.917478164  0.000000000 11.799346719     0.000000000  0.000000000  0.084750455

  length of vectors
     5.540150750  5.540150750 12.432667379     0.185407906  0.185407906  0.084750455


 FORCES acting on ions
    electron-ion (+dipol)            ewald-force                    non-local-force                 convergence-correction
 -----------------------------------------------------------------------------------------------
   -.415E-03 0.128E-04 -.810E+02   -.874E-04 -.121E-04 0.806E+02   -.434E-17 -.347E-17 0.393E+00   -.603E-06 -.218E-08 0.544E-01
   0.426E-03 -.170E-05 0.136E-02   0.798E-04 0.512E-06 -.307E-03   -.217E-18 0.000E+00 -.260E-17   0.563E-07 0.130E-06 0.117E-04
   0.213E-07 -.992E-05 0.810E+02   -.784E-05 0.584E-05 -.806E+02   0.000E+00 -.347E-17 -.393E+00   0.544E-06 0.419E-07 -.544E-01
   -.415E-03 -.128E-04 -.810E+02   -.874E-04 0.121E-04 0.806E+02   0.347E-17 0.260E-17 0.393E+00   -.603E-06 0.218E-08 0.544E-01
   0.426E-03 0.170E-05 0.136E-02   0.798E-04 -.512E-06 -.307E-03   0.217E-18 0.000E+00 -.607E-17   0.563E-07 -.130E-06 0.117E-04
   0.213E-07 0.992E-05 0.810E+02   -.784E-05 -.584E-05 -.806E+02   0.867E-18 0.304E-17 -.393E+00   0.544E-06 -.419E-07 -.544E-01
   0.131E-05 -.138E-12 -.229E+02   -.277E-05 -.101E-13 0.226E+02   0.867E-17 0.867E-18 0.410E+00   0.817E-07 -.769E-14 0.209E-01
   0.222E-04 -.154E-11 0.215E+02   0.260E-04 0.258E-13 -.211E+02   0.694E-17 0.000E+00 -.375E+00   -.522E-07 -.121E-13 -.284E-01
   -.294E-04 -.780E-12 -.180E-04   -.167E-04 0.277E-13 -.331E-03   0.339E-20 0.339E-20 0.339E-20   -.402E-07 0.155E-13 -.391E-05
   0.253E-04 -.666E-12 0.229E+02   0.173E-04 -.452E-13 -.226E+02   -.694E-17 0.000E+00 -.410E+00   -.527E-07 0.111E-13 -.209E-01
   -.378E-05 -.932E-13 -.215E+02   0.295E-06 0.312E-14 0.211E+02   -.694E-17 0.000E+00 0.375E+00   0.925E-07 0.122E-13 0.284E-01
   -.351E-04 0.795E-12 -.850E-04   -.228E-04 -.520E-13 -.470E-03   0.169E-20 0.000E+00 0.678E-20   -.616E-07 -.393E-14 -.555E-05
   0.512E-03 -.292E-11 0.986E+01   -.418E-04 -.120E-13 -.115E+02   0.278E-16 0.000E+00 0.170E+01   0.811E-07 -.376E-13 0.122E-01
   -.488E-03 -.864E-13 -.348E+02   0.387E-04 -.695E-14 0.351E+02   -.173E-17 0.000E+00 -.406E+00   -.900E-07 0.543E-14 -.703E-02
   -.746E-07 -.315E-12 0.348E+02   -.182E-05 -.831E-14 -.351E+02   0.347E-17 0.000E+00 0.406E+00   0.245E-08 0.319E-13 0.702E-02
   0.476E-03 -.512E-12 -.986E+01   -.409E-04 -.186E-13 0.115E+02   -.208E-16 0.000E+00 -.170E+01   0.251E-07 -.326E-15 -.122E-01
   -.506E-03 0.414E-12 -.747E+02   0.633E-04 -.738E-14 0.714E+02   -.139E-16 0.000E+00 0.315E+01   -.509E-06 0.174E-13 0.771E-01
   -.209E-04 -.255E-11 0.747E+02   0.897E-05 0.289E-13 -.714E+02   0.278E-16 0.000E+00 -.315E+01   0.505E-06 0.101E-13 -.771E-01
   -.492E-03 0.230E+01 0.165E+02   -.520E-04 -.212E+01 -.162E+02   0.347E-17 -.216E+00 -.341E+00   -.211E-07 0.678E-02 -.180E-01
   0.646E-05 -.230E+01 -.165E+02   -.258E-05 0.212E+01 0.162E+02   -.867E-18 0.216E+00 0.341E+00   0.428E-08 -.678E-02 0.180E-01
   0.480E-03 -.354E+02 0.145E-02   0.600E-04 0.306E+02 -.194E-03   0.201E-16 0.476E+01 -.217E-18   0.168E-08 0.732E-01 -.325E-05
   -.492E-03 -.230E+01 0.165E+02   -.520E-04 0.212E+01 -.162E+02   -.867E-18 0.216E+00 -.341E+00   -.211E-07 -.678E-02 -.180E-01
   0.646E-05 0.230E+01 -.165E+02   -.258E-05 -.212E+01 0.162E+02   0.173E-17 -.216E+00 0.341E+00   0.428E-08 0.678E-02 0.180E-01
   0.480E-03 0.354E+02 0.145E-02   0.600E-04 -.306E+02 -.194E-03   -.894E-17 -.476E+01 0.217E-18   0.168E-08 -.732E-01 -.325E-05
   0.230E+01 -.120E-11 0.165E+02   -.212E+01 0.242E-13 -.162E+02   -.216E+00 0.000E+00 -.341E+00   0.678E-02 0.204E-13 -.180E-01
   -.230E+01 -.969E-12 -.165E+02   0.212E+01 0.373E-13 0.162E+02   0.216E+00 0.000E+00 0.341E+00   -.678E-02 0.111E-13 0.180E-01
   -.354E+02 0.530E-12 0.146E-02   0.306E+02 0.155E-13 -.194E-03   0.476E+01 0.000E+00 0.000E+00   0.732E-01 -.319E-13 -.298E-05
   -.230E+01 0.198E-12 0.165E+02   0.212E+01 0.384E-13 -.162E+02   0.216E+00 0.217E-18 -.341E+00   -.678E-02 0.634E-14 -.180E-01
   0.230E+01 0.701E-12 -.165E+02   -.212E+01 -.143E-13 0.162E+02   -.216E+00 0.000E+00 0.341E+00   0.678E-02 0.168E-14 0.180E-01
   0.354E+02 0.739E-12 0.143E-02   -.306E+02 -.409E-13 -.195E-03   -.476E+01 0.000E+00 0.000E+00   -.732E-01 -.166E-13 -.351E-05
 -----------------------------------------------------------------------------------------------
   -.373E-04 -.957E-11 0.432E-01   0.391E-13 -.251E-13 0.497E-13   0.000E+00 0.217E-18 0.500E-15   -.717E-07 0.116E-12 0.128E-05
 
 
 POSITION                                       TOTAL-FORCE (eV/Angst)
 -----------------------------------------------------------------------------------
      0.00000      0.00000      3.88723        -0.000000      0.000000      0.027664
     -0.00000      0.00000      7.86623        -0.000000      0.000000     -0.000000
      3.91748      0.00000      0.04589        -0.000000      0.000000     -0.027664
      3.91748      0.00000      3.88723        -0.000000      0.000000      0.027664
      3.91748      0.00000      7.86623        -0.000000     -0.000000     -0.000000
      0.00000      0.00000      0.04589        -0.000000      0.000000     -0.027664
      1.95874     -1.95874      5.90472        -0.000000      0.000000      0.083697
      1.95874     -1.95874      9.84625         0.000000      0.000000     -0.036533
      1.95874     -1.95874      1.96656        -0.000000      0.000000     -0.000000
      1.95874      1.95874      9.82774         0.000000      0.000000     -0.083697
      1.95874      1.95874      5.88622        -0.000000      0.000000      0.036533
      1.95874      1.95874      1.96656        -0.000000      0.000000     -0.000000
      1.95874     -1.95874      7.89999        -0.000000     -0.000000      0.045568
      1.95874     -1.95874      3.93969        -0.000000      0.000000     -0.171765
      1.95874      1.95874     11.79278         0.000000      0.000000      0.171765
      1.95874      1.95874      7.83247         0.000000      0.000000     -0.045568
      1.95874      1.95874      3.94565        -0.000000      0.000000     -0.050741
      1.95874     -1.95874     11.78681         0.000000      0.000000      0.050741
     -1.95874     -0.00257      9.82152        -0.000000     -0.029591     -0.018272
     -1.95874      0.00257      5.91094         0.000000      0.029591      0.018272
      5.87622      0.03739      1.96656        -0.000000      0.008699     -0.000000
      1.95874      0.00257      9.82152        -0.000000      0.029591     -0.018272
      1.95874     -0.00257      5.91094         0.000000     -0.029591      0.018272
      1.95874     -0.03739      1.96656        -0.000000     -0.008699     -0.000000
     -0.00257     -1.95874      9.82152        -0.029591      0.000000     -0.018272
      0.00257     -1.95874      5.91094         0.029591      0.000000      0.018272
      3.95487      1.95874      1.96656         0.008699     -0.000000     -0.000000
      0.00257      1.95874      9.82152         0.029591      0.000000     -0.018272
     -0.00257      1.95874      5.91094        -0.029591      0.000000      0.018272
      3.88009     -1.95874      1.96656        -0.008699     -0.000000     -0.000000
 -----------------------------------------------------------------------------------
    total drift:                               -0.000037     -0.000000      0.043165


--------------------------------------------------------------------------------------------------------



  FREE ENERGIE OF THE ION-ELECTRON SYSTEM (eV)
  ---------------------------------------------------
  free  energy   TOTEN  =      -232.41458885 eV

  energy  without entropy=     -232.41458885  energy(sigma->0) =     -232.41458885
 


--------------------------------------------------------------------------------------------------------


    POTLOK:  cpu time    0.0973: real time    0.0975


--------------------------------------------------------------------------------------------------------


     LOOP+:  cpu time  100.5935: real time  100.9579
    4ORBIT:  cpu time    0.0000: real time    0.0000
 


 total charge     
 
# of ion       s       p       d       f       tot
--------------------------------------------------
    1        1.998   5.695   0.470   0.182   8.345
    2        1.998   5.696   0.476   0.184   8.354
    3        1.998   5.694   0.472   0.181   8.346
    4        1.998   5.694   0.472   0.181   8.346
    5        1.998   5.696   0.476   0.184   8.354
    6        1.998   5.695   0.470   0.182   8.345
    7        0.311   0.463   4.908   0.000   5.682
    8        0.318   0.482   4.879   0.000   5.679
    9        0.337   0.523   4.861   0.000   5.721
   10        0.311   0.462   4.908   0.000   5.682
   11        0.318   0.482   4.893   0.000   5.693
   12        0.380   0.534   8.306   0.000   9.220
   13        1.563   3.456   0.000   0.000   5.019
   14        1.566   3.452   0.000   0.000   5.018
   15        1.566   3.452   0.000   0.000   5.018
   16        1.563   3.455   0.000   0.000   5.019
   17        1.558   3.452   0.000   0.000   5.010
   18        1.558   3.452   0.000   0.000   5.010
   19        1.564   3.455   0.000   0.000   5.018
   20        1.564   3.457   0.000   0.000   5.021
   21        1.560   3.456   0.000   0.000   5.016
   22        1.564   3.457   0.000   0.000   5.020
   23        1.564   3.459   0.000   0.000   5.023
   24        1.560   3.456   0.000   0.000   5.016
   25        1.564   3.457   0.000   0.000   5.021
   26        1.564   3.460   0.000   0.000   5.024
   27        1.560   3.456   0.000   0.000   5.015
   28        1.564   3.450   0.000   0.000   5.014
   29        1.564   3.453   0.000   0.000   5.017
   30        1.560   3.456   0.000   0.000   5.015
--------------------------------------------------
tot         42.089  99.306  35.591   1.095 178.081

 


 magnetization (x)
 
# of ion       s       p       d       f       tot
--------------------------------------------------
    1        0.001   0.000   0.010   0.006   0.017
    2        0.001   0.001   0.013   0.008   0.022
    3        0.001   0.001   0.010   0.006   0.017
    4        0.001   0.001   0.010   0.006   0.017
    5        0.001   0.001   0.013   0.008   0.022
    6        0.001   0.000   0.010   0.006   0.017
    7        0.026   0.026   3.858   0.000   3.910
    8        0.025   0.029   3.744   0.000   3.798
    9        0.028   0.038   3.520   0.000   3.586
   10        0.026   0.025   3.859   0.000   3.910
   11        0.025   0.029   3.758   0.000   3.812
   12        0.008  -0.005   1.714   0.000   1.716
   13        0.005  -0.041   0.000   0.000  -0.036
   14        0.008  -0.035   0.000   0.000  -0.027
   15        0.008  -0.035   0.000   0.000  -0.027
   16        0.005  -0.041   0.000   0.000  -0.036
   17        0.005  -0.000   0.000   0.000   0.005
   18        0.005  -0.000   0.000   0.000   0.005
   19        0.006  -0.036   0.000   0.000  -0.030
   20        0.006  -0.033   0.000   0.000  -0.027
   21        0.005  -0.007   0.000   0.000  -0.002
   22        0.006  -0.034   0.000   0.000  -0.028
   23        0.006  -0.031   0.000   0.000  -0.025
   24        0.005  -0.007   0.000   0.000  -0.002
   25        0.006  -0.034   0.000   0.000  -0.028
   26        0.006  -0.031   0.000   0.000  -0.025
   27        0.005  -0.007   0.000   0.000  -0.003
   28        0.006  -0.040   0.000   0.000  -0.034
   29        0.006  -0.038   0.000   0.000  -0.032
   30        0.005  -0.007   0.000   0.000  -0.003
--------------------------------------------------
tot          0.245  -0.311  20.517   0.039  20.491

 
 BZINTS: Fermi energy:  8.077437;219.000000 electrons
         Band energy:-422.848959;  BLOECHL correction: -0.083112

 total amount of memory used by VASP MPI-rank0    74196. kBytes
=======================================================================

   base      :      30000. kBytes
   nonlr-proj:       7423. kBytes
   fftplans  :       3228. kBytes
   grid      :       9428. kBytes
   one-center:        294. kBytes
   wavefun   :      23823. kBytes
 
  
  
 General timing and accounting informations for this job:
 ========================================================
  
                  Total CPU time used (sec):      109.018
                            User time (sec):      105.698
                          System time (sec):        3.319
                         Elapsed time (sec):      109.497
  
                   Maximum memory used (kb):      115624.
                   Average memory used (kb):           0.
  
                          Minor page faults:        45729
                          Major page faults:            0
                 Voluntary context switches:         1121
