       N       E                     dE             d eps       ncg     rms          rms(c)
DAV:   1     0.225851922112E+04    0.22585E+04   -0.54289E+04  5010   0.243E+03
DAV:   2     0.716159437214E+03   -0.15424E+04   -0.13891E+04  5320   0.596E+02
DAV:   3     0.113605079524E+03   -0.60255E+03   -0.54516E+03  5376   0.310E+02
DAV:   4    -0.125281257535E+03   -0.23889E+03   -0.22703E+03  7708   0.161E+02
DAV:   5    -0.168517871945E+03   -0.43237E+02   -0.40993E+02  8466   0.796E+01    0.596E+01
RMM:   6    -0.152505779904E+03    0.16012E+02   -0.48431E+02  8042   0.977E+01    0.812E+01
RMM:   7    -0.147253489758E+03    0.52523E+01   -0.66532E+01  7664   0.371E+01    0.299E+01
RMM:   8    -0.145671222473E+03    0.15823E+01   -0.18945E+01  7007   0.264E+01    0.135E+01
RMM:   9    -0.146906924109E+03   -0.12357E+01   -0.13368E+01  7931   0.127E+01    0.792E+00
RMM:  10    -0.147049522866E+03   -0.14260E+00   -0.28415E+00  8641   0.528E+00    0.441E+00
RMM:  11    -0.147129095145E+03   -0.79572E-01   -0.13048E+00  8489   0.373E+00    0.241E+00
RMM:  12    -0.147184253630E+03   -0.55158E-01   -0.52090E-01  8265   0.237E+00    0.127E+00
RMM:  13    -0.147195158065E+03   -0.10904E-01   -0.17162E-01  7672   0.137E+00    0.135E+00
RMM:  14    -0.147206142856E+03   -0.10985E-01   -0.93899E-02  7469   0.107E+00    0.555E-01
RMM:  15    -0.147211193322E+03   -0.50505E-02   -0.53329E-02  6900   0.728E-01    0.463E-01
RMM:  16    -0.147213149226E+03   -0.19559E-02   -0.25709E-02  6032   0.571E-01    0.146E-01
RMM:  17    -0.147214485007E+03   -0.13358E-02   -0.14316E-02  5166   0.411E-01    0.801E-02
RMM:  18    -0.147215364467E+03   -0.87946E-03   -0.92950E-03  4771   0.381E-01
   1 F= -.14721536E+03 E0= -.14721536E+03  d E =0.000000E+00  mag=    10.0002
