 vasp.5.4.4.18Apr17-6-g9f103f2a35 (build Oct 03 2018 13:58:34) complex          
  
 executed on             LinuxIFC date 2019.06.04  01:10:11
 running on   40 total cores
 distrk:  each k-point on   20 cores,    2 groups
 distr:  one band on NCORES_PER_BAND=  10 cores,    2 groups


--------------------------------------------------------------------------------------------------------


 INCAR:
 POTCAR:    PAW_PBE La 06Sep2000                  
 POTCAR:    PAW_PBE Mn 06Sep2000                  
 POTCAR:    PAW_PBE Ni 02Aug2007                  
 POTCAR:    PAW_PBE O 08Apr2002                   

 ----------------------------------------------------------------------------- 
|                                                                             |
|           W    W    AA    RRRRR   N    N  II  N    N   GGGG   !!!           |
|           W    W   A  A   R    R  NN   N  II  NN   N  G    G  !!!           |
|           W    W  A    A  R    R  N N  N  II  N N  N  G       !!!           |
|           W WW W  AAAAAA  RRRRR   N  N N  II  N  N N  G  GGG   !            |
|           WW  WW  A    A  R   R   N   NN  II  N   NN  G    G                |
|           W    W  A    A  R    R  N    N  II  N    N   GGGG   !!!           |
|                                                                             |
|      You have enabled k-point parallelism (KPAR>1).                         |
|      This developmental code was originally  written by Paul Kent at ORNL,  |
|      and carefully double checked in Vienna.                                |
|      GW as well as linear response parallelism added by Martijn Marsman     |
|      and Georg Kresse.                                                      |
|      Carefully verify results versus KPAR=1.                                |
|      Report problems to Paul Kent and Vienna.                               |
|                                                                             |
 ----------------------------------------------------------------------------- 

 POTCAR:    PAW_PBE La 06Sep2000                  
   VRHFIN =La : [core=Kr4d]                                                     
   LEXCH  = PE                                                                  
   EATOM  =   865.9763 eV,   63.6475 Ry                                         
                                                                                
   TITEL  = PAW_PBE La 06Sep2000                                                
   LULTRA =        F    use ultrasoft PP ?                                      
   IUNSCR =        1    unscreen: 0-lin 1-nonlin 2-no                           
   RPACOR =    2.300    partial core radius                                     
   POMASS =  138.900; ZVAL   =   11.000    mass and valenz                      
   RCORE  =    2.800    outmost cutoff radius                                   
   RWIGS  =    2.900; RWIGS  =    1.535    wigner-seitz radius (au A)           
   ENMAX  =  219.292; ENMIN  =  164.469 eV                                      
   RCLOC  =    1.601    cutoff for local pot                                    
   LCOR   =        T    correct aug charges                                     
   LPAW   =        T    paw PP                                                  
   EAUG   =  583.575                                                            
   DEXC   =    0.000                                                            
   RMAX   =    2.853    core radius for proj-oper                               
   RAUG   =    1.300    factor for augmentation sphere                          
   RDEP   =    2.802    radius for radial grids                                 
   RDEPT  =    2.156    core radius for aug-charge                              
                                                                                
   Atomic configuration                                                         
   14 entries                                                                   
     n  l   j            E        occ.                                          
     1  0  0.50    -38741.0879   2.0000                                         
     2  0  0.50     -6166.6801   2.0000                                         
     2  1  1.50     -5526.1593   6.0000                                         
     3  0  0.50     -1319.0200   2.0000                                         
     3  1  1.50     -1114.5963   6.0000                                         
     3  2  2.50      -821.1793  10.0000                                         
     4  0  0.50      -266.3851   2.0000                                         
     4  1  1.50      -199.9276   6.0000                                         
     4  2  2.50      -103.8239  10.0000                                         
     5  0  0.50       -38.9172   2.0000                                         
     6  0  0.50        -3.6792   2.0000                                         
     5  1  1.50       -22.3948   6.0000                                         
     5  2  2.50        -3.0911   0.9999                                         
     4  3  2.50        -4.3603   0.0001                                         
   Description                                                                  
     l       E           TYP  RCUT    TYP  RCUT                                 
     0    -38.9171645     23  2.800                                             
     0     -3.6792381     23  2.800                                             
     1    -22.3948300     23  2.500                                             
     1     27.2116520     23  2.500                                             
     2     -3.0910934     23  2.500                                             
     2      1.0119135     23  2.500                                             
     3     -4.3602911     23  2.800                                             
     3     -5.7208737     23  2.800                                             
  local pseudopotential read in
  partial core-charges read in
  partial kinetic energy density read in
  atomic valenz-charges read in
  non local Contribution for L=           0  read in
    real space projection operators read in
  non local Contribution for L=           0  read in
    real space projection operators read in
  non local Contribution for L=           1  read in
    real space projection operators read in
  non local Contribution for L=           1  read in
    real space projection operators read in
  non local Contribution for L=           2  read in
    real space projection operators read in
  non local Contribution for L=           2  read in
    real space projection operators read in
  non local Contribution for L=           3  read in
    real space projection operators read in
  non local Contribution for L=           3  read in
    real space projection operators read in
    PAW grid and wavefunctions read in
 
   number of l-projection  operators is LMAX  =           8
   number of lm-projection operators is LMMAX =          32
 
 POTCAR:    PAW_PBE Mn 06Sep2000                  
   VRHFIN =Mn: d6 s1                                                            
   LEXCH  = PE                                                                  
   EATOM  =   416.7541 eV,   30.6306 Ry                                         
                                                                                
   TITEL  = PAW_PBE Mn 06Sep2000                                                
   LULTRA =        F    use ultrasoft PP ?                                      
   IUNSCR =        1    unscreen: 0-lin 1-nonlin 2-no                           
   RPACOR =    2.000    partial core radius                                     
   POMASS =   54.938; ZVAL   =    7.000    mass and valenz                      
   RCORE  =    2.300    outmost cutoff radius                                   
   RWIGS  =    2.500; RWIGS  =    1.323    wigner-seitz radius (au A)           
   ENMAX  =  269.864; ENMIN  =  202.398 eV                                      
   RCLOC  =    1.725    cutoff for local pot                                    
   LCOR   =        T    correct aug charges                                     
   LPAW   =        T    paw PP                                                  
   EAUG   =  500.711                                                            
   DEXC   =    0.000                                                            
   RMAX   =    2.343    core radius for proj-oper                               
   RAUG   =    1.300    factor for augmentation sphere                          
   RDEP   =    2.338    radius for radial grids                                 
   RDEPT  =    1.911    core radius for aug-charge                              
                                                                                
   Atomic configuration                                                         
    9 entries                                                                   
     n  l   j            E        occ.                                          
     1  0  0.50     -6424.8288   2.0000                                         
     2  0  0.50      -739.1154   2.0000                                         
     2  1  1.50      -625.3949   6.0000                                         
     3  0  0.50       -81.6100   2.0000                                         
     3  1  1.50       -50.4667   6.0000                                         
     3  2  2.50        -3.3745   6.0000                                         
     4  0  0.50        -4.1331   1.0000                                         
     4  1  0.50        -4.0817   0.0000                                         
     4  3  2.50        -1.3606   0.0000                                         
   Description                                                                  
     l       E           TYP  RCUT    TYP  RCUT                                 
     2     -3.3744664     23  2.300                                             
     2     -4.7350490     23  2.300                                             
     0     -4.1331408     23  2.300                                             
     0      7.6656614     23  2.300                                             
     1     -2.7211652     23  2.300                                             
     1     20.4087390     23  2.300                                             
  local pseudopotential read in
  partial core-charges read in
  partial kinetic energy density read in
  atomic valenz-charges read in
  non local Contribution for L=           2  read in
    real space projection operators read in
  non local Contribution for L=           2  read in
    real space projection operators read in
  non local Contribution for L=           0  read in
    real space projection operators read in
  non local Contribution for L=           0  read in
    real space projection operators read in
  non local Contribution for L=           1  read in
    real space projection operators read in
  non local Contribution for L=           1  read in
    real space projection operators read in
    PAW grid and wavefunctions read in
 
   number of l-projection  operators is LMAX  =           6
   number of lm-projection operators is LMMAX =          18
 
 POTCAR:    PAW_PBE Ni 02Aug2007                  
   VRHFIN =Ni:                                                                  
   LEXCH  = PE                                                                  
   EATOM  =  1077.6739 eV,   79.2068 Ry                                         
                                                                                
   TITEL  = PAW_PBE Ni 02Aug2007                                                
   LULTRA =        F    use ultrasoft PP ?                                      
   IUNSCR =        1    unscreen: 0-lin 1-nonlin 2-no                           
   RPACOR =    2.000    partial core radius                                     
   POMASS =   58.690; ZVAL   =   10.000    mass and valenz                      
   RCORE  =    2.300    outmost cutoff radius                                   
   RWIGS  =    2.430; RWIGS  =    1.286    wigner-seitz radius (au A)           
   ENMAX  =  269.532; ENMIN  =  202.149 eV                                      
   RCLOC  =    1.201    cutoff for local pot                                    
   LCOR   =        T    correct aug charges                                     
   LPAW   =        T    paw PP                                                  
   EAUG   =  544.565                                                            
   DEXC   =    0.000                                                            
   RMAX   =    2.357    core radius for proj-oper                               
   RAUG   =    1.300    factor for augmentation sphere                          
   RDEP   =    2.390    radius for radial grids                                 
   RDEPT  =    1.838    core radius for aug-charge                              
                                                                                
   Atomic configuration                                                         
    9 entries                                                                   
     n  l   j            E        occ.                                          
     1  0  0.50     -8206.4253   2.0000                                         
     2  0  0.50      -976.1748   2.0000                                         
     2  1  1.50      -839.0571   6.0000                                         
     3  0  0.50      -105.9991   2.0000                                         
     3  1  1.50       -66.4603   6.0000                                         
     3  2  2.50        -4.6458   9.0000                                         
     4  0  0.50        -4.4926   1.0000                                         
     4  1  1.50        -4.0817   0.0000                                         
     4  3  2.50        -1.3606   0.0000                                         
   Description                                                                  
     l       E           TYP  RCUT    TYP  RCUT                                 
     2     -4.6457903     23  2.300                                             
     2     -6.0063729     23  2.300                                             
     0     -4.4925590     23  2.300                                             
     0      5.0102601     23  2.300                                             
     1     -2.7211652     23  2.300                                             
     1     16.5183231     23  2.300                                             
  local pseudopotential read in
  partial core-charges read in
  partial kinetic energy density read in
  atomic valenz-charges read in
  non local Contribution for L=           2  read in
    real space projection operators read in
  non local Contribution for L=           2  read in
    real space projection operators read in
  non local Contribution for L=           0  read in
    real space projection operators read in
  non local Contribution for L=           0  read in
    real space projection operators read in
  non local Contribution for L=           1  read in
    real space projection operators read in
  non local Contribution for L=           1  read in
    real space projection operators read in
    PAW grid and wavefunctions read in
 
   number of l-projection  operators is LMAX  =           6
   number of lm-projection operators is LMMAX =          18
 
 POTCAR:    PAW_PBE O 08Apr2002                   
   VRHFIN =O: s2p4                                                              
   LEXCH  = PE                                                                  
   EATOM  =   432.3788 eV,   31.7789 Ry                                         
                                                                                
   TITEL  = PAW_PBE O 08Apr2002                                                 
   LULTRA =        F    use ultrasoft PP ?                                      
   IUNSCR =        1    unscreen: 0-lin 1-nonlin 2-no                           
   RPACOR =    1.200    partial core radius                                     
   POMASS =   16.000; ZVAL   =    6.000    mass and valenz                      
   RCORE  =    1.520    outmost cutoff radius                                   
   RWIGS  =    1.550; RWIGS  =    0.820    wigner-seitz radius (au A)           
   ENMAX  =  400.000; ENMIN  =  300.000 eV                                      
   ICORE  =        2    local potential                                         
   LCOR   =        T    correct aug charges                                     
   LPAW   =        T    paw PP                                                  
   EAUG   =  605.392                                                            
   DEXC   =    0.000                                                            
   RMAX   =    1.553    core radius for proj-oper                               
   RAUG   =    1.300    factor for augmentation sphere                          
   RDEP   =    1.550    radius for radial grids                                 
   RDEPT  =    1.329    core radius for aug-charge                              
                                                                                
   Atomic configuration                                                         
    4 entries                                                                   
     n  l   j            E        occ.                                          
     1  0  0.50      -514.6923   2.0000                                         
     2  0  0.50       -23.9615   2.0000                                         
     2  1  0.50        -9.0305   4.0000                                         
     3  2  1.50        -9.5241   0.0000                                         
   Description                                                                  
     l       E           TYP  RCUT    TYP  RCUT                                 
     0    -23.9615318     23  1.200                                             
     0     -9.5240782     23  1.200                                             
     1     -9.0304911     23  1.520                                             
     1      8.1634956     23  1.520                                             
     2     -9.5240782      7  1.500                                             
  local pseudopotential read in
  partial core-charges read in
  partial kinetic energy density read in
  kinetic energy density of atom read in
  atomic valenz-charges read in
  non local Contribution for L=           0  read in
    real space projection operators read in
  non local Contribution for L=           0  read in
    real space projection operators read in
  non local Contribution for L=           1  read in
    real space projection operators read in
  non local Contribution for L=           1  read in
    real space projection operators read in
    PAW grid and wavefunctions read in
 
   number of l-projection  operators is LMAX  =           4
   number of lm-projection operators is LMMAX =           8
 
 Optimization of the real space projectors (new method)

 maximal supplied QI-value         = 13.42
 optimisation between [QCUT,QGAM] = [ 11.67, 23.35] = [ 38.16,152.62] Ry 
 Optimized for a Real-space Cutoff    1.63 Angstroem

   l    n(q)    QCUT    max X(q) W(low)/X(q) W(high)/X(q)  e(spline) 
   0     11    11.673    13.882    0.27E-04    0.79E-05    0.11E-06
   0     11    11.673    12.184    0.39E-04    0.13E-04    0.19E-06
   1     11    11.673     4.523    0.73E-05    0.76E-05    0.12E-06
   1     11    11.673     4.424    0.87E-05    0.13E-04    0.19E-06
   2     10    11.673    52.481    0.65E-04    0.36E-04    0.18E-06
   2     10    11.673    38.501    0.61E-04    0.33E-04    0.17E-06
   3     10    11.673    65.631    0.17E-03    0.14E-03    0.37E-06
   3     10    11.673    56.854    0.17E-03    0.14E-03    0.37E-06
 Optimization of the real space projectors (new method)

 maximal supplied QI-value         = 16.25
 optimisation between [QCUT,QGAM] = [ 11.54, 23.24] = [ 37.28,151.24] Ry 
 Optimized for a Real-space Cutoff    1.53 Angstroem

   l    n(q)    QCUT    max X(q) W(low)/X(q) W(high)/X(q)  e(spline) 
   2     10    11.539   110.144    0.12E-03    0.13E-03    0.25E-06
   2     10    11.539   103.200    0.12E-03    0.13E-03    0.25E-06
   0     11    11.539    68.437    0.46E-04    0.21E-04    0.32E-06
   0     11    11.539    33.971    0.37E-04    0.19E-04    0.29E-06
   1     10    11.539    17.065    0.51E-04    0.22E-04    0.13E-06
   1     10    11.539    12.540    0.41E-04    0.18E-04    0.11E-06
 Optimization of the real space projectors (new method)

 maximal supplied QI-value         = 16.25
 optimisation between [QCUT,QGAM] = [ 11.54, 23.24] = [ 37.28,151.24] Ry 
 Optimized for a Real-space Cutoff    1.45 Angstroem

   l    n(q)    QCUT    max X(q) W(low)/X(q) W(high)/X(q)  e(spline) 
   2      9    11.539    60.317    0.19E-03    0.47E-04    0.16E-06
   2      9    11.539    55.921    0.19E-03    0.48E-04    0.16E-06
   0     10    11.539    51.690    0.80E-04    0.50E-04    0.24E-06
   0     10    11.539    30.015    0.73E-04    0.45E-04    0.22E-06
   1     10    11.539    18.849    0.87E-04    0.16E-03    0.71E-07
   1     10    11.539    14.624    0.73E-04    0.13E-03    0.64E-07
 Optimization of the real space projectors (new method)

 maximal supplied QI-value         = 24.76
 optimisation between [QCUT,QGAM] = [ 11.64, 23.27] = [ 37.91,151.63] Ry 
 Optimized for a Real-space Cutoff    1.14 Angstroem

   l    n(q)    QCUT    max X(q) W(low)/X(q) W(high)/X(q)  e(spline) 
   0      8    11.635    20.381    0.10E-03    0.33E-03    0.24E-06
   0      8    11.635    15.268    0.11E-03    0.35E-03    0.26E-06
   1      7    11.635     5.964    0.24E-03    0.31E-03    0.30E-06
   1      7    11.635     5.382    0.22E-03    0.25E-03    0.26E-06
  PAW_PBE La 06Sep2000                  :
 energy of atom  1       EATOM= -865.9763
 kinetic energy error for atom=    0.0009 (will be added to EATOM!!)
  PAW_PBE Mn 06Sep2000                  :
 energy of atom  2       EATOM= -416.7541
 kinetic energy error for atom=    0.0024 (will be added to EATOM!!)
  PAW_PBE Ni 02Aug2007                  :
 energy of atom  3       EATOM=-1077.6739
 kinetic energy error for atom=    0.0030 (will be added to EATOM!!)
  PAW_PBE O 08Apr2002                   :
 energy of atom  4       EATOM= -432.3788
 kinetic energy error for atom=    0.0208 (will be added to EATOM!!)
 
 
 POSCAR: SCEL6_6_1_1_0_5_5/0                     
  positions in direct lattice
  velocities in cartesian coordinates
 exchange correlation table for  LEXCH =        8
   RHO(1)=    0.500       N(1)  =     2000
   RHO(2)=  100.500       N(2)  =     4000
 


--------------------------------------------------------------------------------------------------------


 ion  position               nearest neighbor table
   1  0.667  0.333  0.834-  17 2.76  23 2.76  29 2.76  16 2.77  22 2.77  28 2.77  28 2.77  16 2.77
                            22 2.77  27 2.77  21 2.77  15 2.77  10 3.39  10 3.39  10 3.39   9 3.40
   2  0.333  0.667  0.666-  14 2.76  20 2.76  26 2.76  21 2.77  15 2.77  27 2.77  27 2.77  21 2.77
                            15 2.77  28 2.77  22 2.77  16 2.77   7 3.39   7 3.39   7 3.39   9 3.40
   3  0.000  0.000  0.493-  13 2.69  19 2.69  25 2.69  26 2.77  14 2.77  20 2.77  26 2.77  20 2.77
                            14 2.77  12 3.31   8 3.37   8 3.37   8 3.37   7 3.42   7 3.42   7 3.42
   4  0.667  0.333  0.328-  30 2.72  24 2.72  18 2.72  19 2.77  13 2.77  25 2.77  25 2.77  13 2.77
                            19 2.77  11 3.31  12 3.37  12 3.37  12 3.37   8 3.42   8 3.42   8 3.42
   5  0.333  0.667  0.172-  25 2.72  19 2.72  13 2.72  18 2.77  24 2.77  30 2.77  30 2.77  18 2.77
                            24 2.77   8 3.31  12 3.37  12 3.37  12 3.37  11 3.42  11 3.42  11 3.42
   6  0.000  0.000  0.007-  18 2.69  24 2.69  30 2.69  29 2.77  23 2.77  17 2.77  29 2.77  17 2.77
                            23 2.77  12 3.31  11 3.37  11 3.37  11 3.37  10 3.42  10 3.42  10 3.42
   7  0.667  0.333  0.583-  27 1.99  21 1.99  15 1.99  14 1.99  20 1.99  26 1.99   2 3.39   2 3.39
                             2 3.39   1 3.41   3 3.42   3 3.42   3 3.42
   8  0.333  0.667  0.416-  20 1.93  14 1.93  26 1.93  25 1.93  19 1.93  13 1.93   5 3.31   3 3.37
                             3 3.37   3 3.37   2 3.40   4 3.42   4 3.42   4 3.42
   9  0.000  0.000  0.750-  15 1.93  16 1.93  21 1.93  22 1.93  27 1.93  28 1.93   1 3.40   2 3.40
                             1 3.40   2 3.40   1 3.40   2 3.40
  10  0.333  0.667  0.917-  28 1.99  22 1.99  16 1.99  23 1.99  17 1.99  29 1.99   1 3.39   1 3.39
                             1 3.39   2 3.41   6 3.42   6 3.42   6 3.42
  11  0.667  0.333  0.084-  23 1.93  17 1.93  29 1.93  30 1.93  24 1.93  18 1.93   4 3.31   6 3.37
                             6 3.37   6 3.37   1 3.40   5 3.42   5 3.42   5 3.42
  12  0.000  0.000  0.250-  19 1.98  24 1.98  13 1.98  18 1.98  25 1.98  30 1.98   3 3.31   6 3.31
                             5 3.37   4 3.37   4 3.37   5 3.37   4 3.37   5 3.37
  13  0.663  0.832  0.335-   8 1.93  12 1.98   3 2.69   5 2.72   4 2.77   4 2.77
  14  0.007  0.504  0.499-   8 1.93   7 1.99   2 2.76   3 2.77   3 2.77
  15  0.329  0.165  0.668-   9 1.93   7 1.99   2 2.77   2 2.77   1 2.77
  16  0.671  0.835  0.832-   9 1.93  10 1.99   1 2.77   1 2.77   2 2.77
  17  0.993  0.496  0.001-  11 1.93  10 1.99   1 2.76   6 2.77   6 2.77
  18  0.337  0.168  0.165-  11 1.93  12 1.98   6 2.69   4 2.72   5 2.77   5 2.77
  19  0.168  0.337  0.335-   8 1.93  12 1.98   3 2.69   5 2.72   4 2.77   4 2.77
  20  0.496  0.993  0.499-   8 1.93   7 1.99   2 2.76   3 2.77   3 2.77
  21  0.835  0.671  0.668-   9 1.93   7 1.99   2 2.77   2 2.77   1 2.77
  22  0.165  0.329  0.832-   9 1.93  10 1.99   1 2.77   1 2.77   2 2.77
  23  0.504  0.007  0.001-  11 1.93  10 1.99   1 2.76   6 2.77   6 2.77
  24  0.832  0.663  0.165-  11 1.93  12 1.98   6 2.69   4 2.72   5 2.77   5 2.77
  25  0.168  0.832  0.335-   8 1.93  12 1.98   3 2.69   5 2.72   4 2.77   4 2.77
  26  0.496  0.504  0.499-   8 1.93   7 1.99   2 2.76   3 2.77   3 2.77
  27  0.835  0.165  0.668-   9 1.93   7 1.99   2 2.77   2 2.77   1 2.77
  28  0.165  0.835  0.832-   9 1.93  10 1.99   1 2.77   1 2.77   2 2.77
  29  0.504  0.496  0.001-  11 1.93  10 1.99   1 2.76   6 2.77   6 2.77
  30  0.832  0.168  0.165-  11 1.93  12 1.98   6 2.69   4 2.72   5 2.77   5 2.77
 
  LATTYP: Found a hexagonal cell.
 ALAT       =     5.5424844657
 C/A-ratio  =     2.4507266835
  
  Lattice vectors:
  
 A1 = (   3.9191283503,   0.0000000000,  -3.9191283503)
 A2 = (  -3.9191283503,   3.9191283503,   0.0000000000)
 A3 = (   7.8422148552,   7.8422148552,   7.8422148552)


Analysis of symmetry for initial positions (statically):
=====================================================================
 Subroutine PRICEL returns:
 Original cell was already a primitive cell.
 

 Routine SETGRP: Setting up the symmetry group for a 
 hexagonal supercell.


 Subroutine GETGRP returns: Found 12 space group operations
 (whereof  6 operations were pure point group operations)
 out of a pool of 24 trial point group operations.


The static configuration has the point symmetry C_3v.
 The point group associated with its full space group is D_3d.


Analysis of symmetry for dynamics (positions and initial velocities):
=====================================================================
 Subroutine PRICEL returns:
 Original cell was already a primitive cell.
 

 Routine SETGRP: Setting up the symmetry group for a 
 hexagonal supercell.


 Subroutine GETGRP returns: Found 12 space group operations
 (whereof  6 operations were pure point group operations)
 out of a pool of 24 trial point group operations.


The dynamic configuration has the point symmetry C_3v.
 The point group associated with its full space group is D_3d.


Analysis of structural, dynamic, and magnetic symmetry:
=====================================================================
 Subroutine PRICEL returns:
 Original cell was already a primitive cell.
 

 Routine SETGRP: Setting up the symmetry group for a 
 hexagonal supercell.


 Subroutine GETGRP returns: Found 12 space group operations
 (whereof  6 operations were pure point group operations)
 out of a pool of 24 trial point group operations.


The magnetic configuration has the point symmetry C_3v.
 The point group associated with its full space group is D_3d.


 Subroutine INISYM returns: Found 12 space group operations
 (whereof  6 operations are pure point group operations),
 and found     1 'primitive' translations

 
 
 KPOINTS: Automatic mesh                          

Automatic generation of k-mesh.
 generate k-points for:    4    4    1
Space group operators:
 irot       det(A)        alpha          n_x          n_y          n_z        tau_x        tau_y        tau_z
    1     1.000000     0.000000     1.000000     0.000000     0.000000     0.000000     0.000000     0.000000
    2     1.000000   120.000000    -0.577350    -0.577350    -0.577350     0.000000     0.000000     0.000000
    3     1.000000   120.000000     0.577350     0.577350     0.577350     0.000000     0.000000     0.000000
    4    -1.000000   180.000000     0.707107     0.000000    -0.707107     0.000000     0.000000     0.000000
    5    -1.000000   180.000000     0.707107    -0.707107     0.000000     0.000000     0.000000     0.000000
    6    -1.000000   180.000000     0.000000    -0.707107     0.707107     0.000000     0.000000     0.000000
    7    -1.000000     0.000000     1.000000     0.000000     0.000000    -0.000000    -0.000000     0.500000
    8    -1.000000   120.000000    -0.577350    -0.577350    -0.577350    -0.000000    -0.000000     0.500000
    9    -1.000000   120.000000     0.577350     0.577350     0.577350    -0.000000    -0.000000     0.500000
   10     1.000000   180.000000     0.707107     0.000000    -0.707107    -0.000000    -0.000000     0.500000
   11     1.000000   180.000000     0.707107    -0.707107     0.000000    -0.000000    -0.000000     0.500000
   12     1.000000   180.000000     0.000000    -0.707107     0.707107    -0.000000    -0.000000     0.500000
 
 Subroutine IBZKPT returns following result:
 ===========================================
 
 Found      4 irreducible k-points:
 
 Following reciprocal coordinates:
            Coordinates               Weight
  0.000000  0.000000  0.000000      1.000000
  0.250000  0.000000  0.000000      6.000000
  0.500000  0.000000  0.000000      3.000000
  0.250000  0.250000  0.000000      6.000000
 
 Following cartesian coordinates:
            Coordinates               Weight
  0.000000  0.000000  0.000000      1.000000
  0.021263  0.021263 -0.042526      6.000000
  0.042526  0.042526 -0.085053      3.000000
  0.000000  0.063790 -0.063790      6.000000
 
 TETIRR: Found     10 inequivalent tetrahedra from       96


--------------------------------------------------------------------------------------------------------




 Dimension of arrays:
   k-points           NKPTS =      4   k-points in BZ     NKDIM =      4   number of bands    NBANDS=    144
   number of dos      NEDOS =    301   number of ions     NIONS =     30
   non local maximal  LDIM  =      8   non local SUM 2l+1 LMDIM =     32
   total plane-waves  NPLWV = 190512
   max r-space proj   IRMAX =   9565   max aug-charges    IRDMAX=  27745
   dimension x,y,z NGX =    42 NGY =   42 NGZ =  108
   dimension x,y,z NGXF=    84 NGYF=   84 NGZF=  216
   support grid    NGXF=    84 NGYF=   84 NGZF=  216
   ions per type =               6   5   1  18
   NGX,Y,Z   is equivalent  to a cutoff of  12.60, 12.60, 13.22 a.u.
   NGXF,Y,Z  is equivalent  to a cutoff of  25.20, 25.20, 26.44 a.u.

 SYSTEM =  final                                   
 POSCAR =  SCEL6_6_1_1_0_5_5/0                     

 Startparameter for this run:
   NWRITE =      2    write-flag & timer
   PREC   = accura    normal or accurate (medium, high low for compatibility)
   ISTART =      0    job   : 0-new  1-cont  2-samecut
   ICHARG =      1    charge: 1-file 2-atom 10-const
   ISPIN  =      2    spin polarized calculation?
   LNONCOLLINEAR =      F non collinear calculations
   LSORBIT =      F    spin-orbit coupling
   INIWAV =      1    electr: 0-lowe 1-rand  2-diag
   LASPH  =      F    aspherical Exc in radial PAW
   METAGGA=      F    non-selfconsistent MetaGGA calc.

 Electronic Relaxation 1
   ENCUT  =  520.0 eV  38.22 Ry    6.18 a.u.  10.31 10.31 25.26*2*pi/ulx,y,z
   ENINI  =  520.0     initial cutoff
   ENAUG  =  605.4 eV  augmentation charge cutoff
   NELM   =    100;   NELMIN=  2; NELMDL= -5     # of ELM steps 
   EDIFF  = 0.1E-02   stopping-criterion for ELM
   LREAL  =      T    real-space projection
   NLSPLINE    = F    spline interpolate recip. space projectors
   LCOMPAT=      F    compatible to vasp.4.4
   GGA_COMPAT  = T    GGA compatible to vasp.4.4-vasp.4.6
   LMAXPAW     = -100 max onsite density
   LMAXMIX     =    6 max onsite mixed and CHGCAR
   VOSKOWN=      0    Vosko Wilk Nusair interpolation
   ROPT   =   -0.00025  -0.00025  -0.00025  -0.00025
 Ionic relaxation
   EDIFFG = 0.1E-01   stopping-criterion for IOM
   NSW    =      0    number of steps for IOM
   NBLOCK =      1;   KBLOCK =      1    inner block; outer block 
   IBRION =     -1    ionic relax: 0-MD 1-quasi-New 2-CG
   NFREE  =      0    steps in history (QN), initial steepest desc. (CG)
   ISIF   =      2    stress and relaxation
   IWAVPR =     10    prediction:  0-non 1-charg 2-wave 3-comb
   ISYM   =      2    0-nonsym 1-usesym 2-fastsym
   LCORR  =      T    Harris-Foulkes like correction to forces

   POTIM  = 0.5000    time-step for ionic-motion
   TEIN   =    0.0    initial temperature
   TEBEG  =    0.0;   TEEND  =   0.0 temperature during run
   SMASS  =  -3.00    Nose mass-parameter (am)
   estimated Nose-frequenzy (Omega)   =  0.10E-29 period in steps =****** mass=  -0.702E-27a.u.
   SCALEE = 1.0000    scale energy and forces
   NPACO  =    256;   APACO  = 16.0  distance and # of slots for P.C.
   PSTRESS=    0.0 pullay stress

  Mass of Ions in am
   POMASS = 138.90 54.94 58.69 16.00
  Ionic Valenz
   ZVAL   =  11.00  7.00 10.00  6.00
  Atomic Wigner-Seitz radii
   RWIGS  =  -1.00 -1.00 -1.00 -1.00
  virtual crystal weights 
   VCA    =   1.00  1.00  1.00  1.00
   NELECT =     219.0000    total number of electrons
   NUPDOWN=      -1.0000    fix difference up-down

 DOS related values:
   EMIN   =  10.00;   EMAX   =-10.00  energy-range for DOS
   EFERMI =   0.00
   ISMEAR =    -5;   SIGMA  =   0.05  broadening in eV -4-tet -1-fermi 0-gaus

 Electronic relaxation 2 (details)
   IALGO  =     68    algorithm
   LDIAG  =      T    sub-space diagonalisation (order eigenvalues)
   LSUBROT=      F    optimize rotation matrix (better conditioning)
   TURBO    =      0    0=normal 1=particle mesh
   IRESTART =      0    0=no restart 2=restart with 2 vectors
   NREBOOT  =      0    no. of reboots
   NMIN     =      0    reboot dimension
   EREF     =   0.00    reference energy to select bands
   IMIX   =      4    mixing-type and parameters
     AMIX     =   0.40;   BMIX     =  1.00
     AMIX_MAG =   1.60;   BMIX_MAG =  1.00
     AMIN     =   0.10
     WC   =   100.;   INIMIX=   1;  MIXPRE=   1;  MAXMIX= -45

 Intra band minimization:
   WEIMIN = 0.0000     energy-eigenvalue tresh-hold
   EBREAK =  0.17E-05  absolut break condition
   DEPER  =   0.30     relativ break condition  

   TIME   =   0.40     timestep for ELM

  volume/ion in A,a.u.               =      12.05        81.29
  Fermi-wavevector in a.u.,A,eV,Ry     =   1.385404  2.618035 26.114277  1.919345
  Thomas-Fermi vector in A             =   2.509818
 
 Write flags
   LWAVE        =      F    write WAVECAR
   LDOWNSAMPLE  =      F    k-point downsampling of WAVECAR
   LCHARG       =      T    write CHGCAR
   LVTOT        =      F    write LOCPOT, total local potential
   LVHAR        =      F    write LOCPOT, Hartree potential only
   LELF         =      F    write electronic localiz. function (ELF)
   LORBIT       =     11    0 simple, 1 ext, 2 COOP (PROOUT), +10 PAW based schemes


 Dipole corrections
   LMONO  =      F    monopole corrections only (constant potential shift)
   LDIPOL =      F    correct potential (dipole corrections)
   IDIPOL =      0    1-x, 2-y, 3-z, 4-all directions 
   EPSILON=  1.0000000 bulk dielectric constant

 LDA+U is selected, type is set to LDAUTYPE =  2
   angular momentum for each species LDAUL =     0    2    2    0
   U (eV)           for each species LDAUU =   0.0  3.9  6.2  0.0
   J (eV)           for each species LDAUJ =   0.0  0.0  0.0  0.0
 Exchange correlation treatment:
   GGA     =    --    GGA type
   LEXCH   =     8    internal setting for exchange type
   VOSKOWN=      0    Vosko Wilk Nusair interpolation
   LHFCALC =     F    Hartree Fock is set to
   LHFONE  =     F    Hartree Fock one center treatment
   AEXX    =    0.0000 exact exchange contribution

 Linear response parameters
   LEPSILON=     F    determine dielectric tensor
   LRPA    =     F    only Hartree local field effects (RPA)
   LNABLA  =     F    use nabla operator in PAW spheres
   LVEL    =     F    velocity operator in full k-point grid
   LINTERFAST=   F  fast interpolation
   KINTER  =     0    interpolate to denser k-point grid
   CSHIFT  =0.1000    complex shift for real part using Kramers Kronig
   OMEGAMAX=  -1.0    maximum frequency
   DEG_THRESHOLD= 0.2000000E-02 threshold for treating states as degnerate
   RTIME   =   -0.100 relaxation time in fs
  (WPLASMAI=    0.000 imaginary part of plasma frequency in eV, 0.658/RTIME)
   DFIELD  = 0.0000000 0.0000000 0.0000000 field for delta impulse in time
 
 Orbital magnetization related:
   ORBITALMAG=     F  switch on orbital magnetization
   LCHIMAG   =     F  perturbation theory with respect to B field
   DQ        =  0.001000  dq finite difference perturbation B field
   LLRAUG    =     F  two centre corrections for induced B field



--------------------------------------------------------------------------------------------------------


 Static calculation
 charge density and potential will be updated during run
 spin polarized calculation
 RMM-DIIS sequential band-by-band and
  variant of blocked Davidson during initial phase
 perform sub-space diagonalisation
    before iterative eigenvector-optimisation
 modified Broyden-mixing scheme, WC =      100.0
 initial mixing is a Kerker type mixing with AMIX =  0.4000 and BMIX =      1.0000
 Hartree-type preconditioning will be used
 using additional bands           34
 real space projection scheme for non local part
 use partial core corrections
 calculate Harris-corrections to forces 
   (improved forces if not selfconsistent)
 use gradient corrections 
 use of overlap-Matrix (Vanderbilt PP)
 Fermi weights with tetrahedron method with Bloechl corrections


--------------------------------------------------------------------------------------------------------


  energy-cutoff  :      520.00
  volume of cell :      361.36
      direct lattice vectors                 reciprocal lattice vectors
     3.919128350  0.000000000 -3.919128350     0.085052926  0.085052926 -0.170105852
    -3.919128350  3.919128350  0.000000000    -0.085052926  0.170105852 -0.085052926
     7.842214855  7.842214855  7.842214855     0.042504999  0.042504999  0.042504999

  length of vectors
     5.542484466  5.542484466 13.583114573     0.208336270  0.208336270  0.073620818


 
 k-points in units of 2pi/SCALE and weight: Automatic mesh                          
   0.00000000  0.00000000  0.00000000       0.062
   0.02126323  0.02126323 -0.04252646       0.375
   0.04252646  0.04252646 -0.08505293       0.188
   0.00000000  0.06378969 -0.06378969       0.375
 
 k-points in reciprocal lattice and weights: Automatic mesh                          
   0.00000000  0.00000000  0.00000000       0.062
   0.25000000  0.00000000  0.00000000       0.375
   0.50000000  0.00000000  0.00000000       0.188
   0.25000000  0.25000000  0.00000000       0.375
 
 position of ions in fractional coordinates (direct lattice) 
   0.66666670  0.33333330  0.83377944
   0.33333330  0.66666670  0.66622056
   0.00000000  0.00000000  0.49344819
   0.66666670  0.33333330  0.32796714
   0.33333330  0.66666670  0.17203286
   0.00000000  0.00000000  0.00655181
   0.66666670  0.33333330  0.58272998
   0.33333330  0.66666670  0.41581389
   0.00000000  0.00000000  0.75000000
   0.33333330  0.66666670  0.91727002
   0.66666670  0.33333330  0.08418611
   0.00000000  0.00000000  0.25000000
   0.66349057  0.83174524  0.33468204
   0.00711233  0.50355616  0.49865192
   0.32933999  0.16467004  0.66796430
   0.67066001  0.83532996  0.83203570
   0.99288767  0.49644384  0.00134808
   0.33650943  0.16825476  0.16531796
   0.16825476  0.33650943  0.33468204
   0.49644384  0.99288767  0.49865192
   0.83532996  0.67066001  0.66796430
   0.16467004  0.32933999  0.83203570
   0.50355616  0.00711233  0.00134808
   0.83174524  0.66349057  0.16531796
   0.16825476  0.83174524  0.33468204
   0.49644384  0.50355616  0.49865192
   0.83532996  0.16467004  0.66796430
   0.16467004  0.83532996  0.83203570
   0.50355616  0.49644384  0.00134808
   0.83174524  0.16825476  0.16531796
 
 position of ions in cartesian coordinates  (Angst):
   7.84505386  7.84505347  3.92592512
   3.91826842  7.83739716  3.91826881
   3.86972669  3.86972669  3.86972669
   3.87836519  3.87836480 -0.04076355
   0.04274224  3.96187098  0.04274263
   0.05138074  0.05138074  0.05138074
   5.87627011  5.87626972  1.95714137
   1.95452549  5.87365423  1.95452588
   5.88166114  5.88166114  5.88166114
   5.88705217  9.80618092  5.88705257
   1.96658194  1.96658155 -1.95254680
   1.96055371  1.96055371  1.96055371
   1.96523683  5.88436478  0.02434374
   1.96490839  5.88403674  3.88266137
   5.88368219  5.88368258  3.94759388
   5.87964009  9.79876805  3.89660006
   1.95619903  1.95619903 -3.88068229
   1.95587060  1.95587099 -0.02236466
   1.96523683  3.94347209  1.96523643
   1.96490839  7.80178972  1.96490839
   5.88368219  7.86672223  1.96455423
   5.87964009  7.81572841  5.87963970
   1.95619903  0.03844606 -1.96292932
   1.95587060  3.89676369 -1.96325736
   0.02434413  5.88436478  1.96523643
   3.88266137  5.88403674  1.96490839
   7.86672184  5.88368258  1.96455423
   3.89660045  9.79876805  5.87963970
   0.03844606  1.95619903 -1.96292932
   3.89676330  1.95587099 -1.96325736
 


--------------------------------------------------------------------------------------------------------


 k-point  1 :   0.0000 0.0000 0.0000  plane waves:    9801
 k-point  2 :   0.2500 0.0000 0.0000  plane waves:    9734
 k-point  3 :   0.5000 0.0000 0.0000  plane waves:    9712
 k-point  4 :   0.2500 0.2500 0.0000  plane waves:    9704

 maximum and minimum number of plane-waves per node :       994      952

 maximum number of plane-waves:      9801
 maximum index in each direction: 
   IXMAX=   10   IYMAX=   10   IZMAX=   25
   IXMIN=  -10   IYMIN=  -10   IZMIN=  -25


 real space projection operators:
  total allocation   :      23747.12 KBytes
  max/ min on nodes  :       2736.69       2265.23


 parallel 3D FFT for wavefunctions:
    minimum data exchange during FFTs selected (reduces bandwidth)
 parallel 3D FFT for charge:
    minimum data exchange during FFTs selected (reduces bandwidth)


 total amount of memory used by VASP MPI-rank0    62342. kBytes
=======================================================================

   base      :      30000. kBytes
   nonlr-proj:       8241. kBytes
   fftplans  :       3626. kBytes
   grid      :      10597. kBytes
   one-center:        294. kBytes
   wavefun   :       9584. kBytes
 
     INWAV:  cpu time    0.0000: real time    0.0000
 Broyden mixing: mesh for mixing (old mesh)
   NGX = 21   NGY = 21   NGZ = 51
  (NGX  = 84   NGY  = 84   NGZ  =216)
  gives a total of  22491 points

 initial charge density was supplied:
 charge density of overlapping atoms calculated
 number of electron     219.0000000 magnetization      23.0000000
 keeping initial charge density in first step


--------------------------------------------------------------------------------------------------------


 Maximum index for non-local projection operator         1353
 Maximum index for augmentation-charges         1964 (set IRDMAX)


--------------------------------------------------------------------------------------------------------


 First call to EWALD:  gamma=   0.249
 Maximum number of real-space cells 4x 4x 2
 Maximum number of reciprocal cells 2x 2x 5

    FEWALD:  cpu time    0.0016: real time    0.0016


--------------------------------------- Iteration      1(   1)  ---------------------------------------


    POTLOK:  cpu time    0.1034: real time    0.1066
    SETDIJ:  cpu time    0.0168: real time    0.0169
atom =   1  type =  1  l = 0
 
 onsite density matrix
 
spin component  1
 
  1.0989
 
spin component  2
 
  1.0989
 
 occupancies and eigenvectors
 
  o =  1.0989  v =  1.0000  0.0000      0.0000  0.0000
  o =  1.0989  v =  0.0000  1.0000      0.0000  0.0000
atom =   2  type =  1  l = 0
 
 onsite density matrix
 
spin component  1
 
  1.0989
 
spin component  2
 
  1.0989
 
 occupancies and eigenvectors
 
  o =  1.0989  v =  1.0000  0.0000      0.0000  0.0000
  o =  1.0989  v =  0.0000  1.0000      0.0000  0.0000
atom =   3  type =  1  l = 0
 
 onsite density matrix
 
spin component  1
 
  1.0989
 
spin component  2
 
  1.0989
 
 occupancies and eigenvectors
 
  o =  1.0989  v =  1.0000  0.0000      0.0000  0.0000
  o =  1.0989  v =  0.0000  1.0000      0.0000  0.0000
atom =   4  type =  1  l = 0
 
 onsite density matrix
 
spin component  1
 
  1.0989
 
spin component  2
 
  1.0989
 
 occupancies and eigenvectors
 
  o =  1.0989  v =  1.0000  0.0000      0.0000  0.0000
  o =  1.0989  v =  0.0000  1.0000      0.0000  0.0000
atom =   5  type =  1  l = 0
 
 onsite density matrix
 
spin component  1
 
  1.0989
 
spin component  2
 
  1.0989
 
 occupancies and eigenvectors
 
  o =  1.0989  v =  1.0000  0.0000      0.0000  0.0000
  o =  1.0989  v =  0.0000  1.0000      0.0000  0.0000
atom =   6  type =  1  l = 0
 
 onsite density matrix
 
spin component  1
 
  1.0989
 
spin component  2
 
  1.0989
 
 occupancies and eigenvectors
 
  o =  1.0989  v =  1.0000  0.0000      0.0000  0.0000
  o =  1.0989  v =  0.0000  1.0000      0.0000  0.0000
atom =   7  type =  2  l = 2
 
 onsite density matrix
 
spin component  1
 
  0.8272  0.0000  0.0000  0.0000  0.0000
  0.0000  0.8272  0.0000  0.0000  0.0000
  0.0000  0.0000  0.8272  0.0000  0.0000
  0.0000  0.0000  0.0000  0.8272  0.0000
  0.0000  0.0000  0.0000  0.0000  0.8272
 
spin component  2
 
  0.2256  0.0000  0.0000  0.0000  0.0000
  0.0000  0.2256  0.0000  0.0000  0.0000
  0.0000  0.0000  0.2256  0.0000  0.0000
  0.0000  0.0000  0.0000  0.2256  0.0000
  0.0000  0.0000  0.0000  0.0000  0.2256
 
 occupancies and eigenvectors
 
  o =  0.2256  v =  0.0000  0.0000  0.0000  0.0000  0.0000  0.0000  0.0000  1.0000  0.0000  0.0000      0.0000  0.0000  0.0000  0.0000  0.0000  0.0000  0.0000  0.0000  0.0000  0.0000
  o =  0.2256  v =  0.0000  0.0000  0.0000  0.0000  0.0000  1.0000  0.0000  0.0000  0.0000  0.0000      0.0000  0.0000  0.0000  0.0000  0.0000  0.0000  0.0000  0.0000  0.0000  0.0000
  o =  0.2256  v =  0.0000  0.0000  0.0000  0.0000  0.0000  0.0000  1.0000  0.0000  0.0000  0.0000      0.0000  0.0000  0.0000  0.0000  0.0000  0.0000  0.0000  0.0000  0.0000  0.0000
  o =  0.2256  v =  0.0000  0.0000  0.0000  0.0000  0.0000  0.0000  0.0000  0.0000  1.0000  0.0000      0.0000  0.0000  0.0000  0.0000  0.0000  0.0000  0.0000  0.0000  0.0000  0.0000
  o =  0.2256  v =  0.0000  0.0000  0.0000  0.0000  0.0000  0.0000  0.0000  0.0000  0.0000  1.0000      0.0000  0.0000  0.0000  0.0000  0.0000  0.0000  0.0000  0.0000  0.0000  0.0000
  o =  0.8272  v =  0.0000  1.0000  0.0000  0.0000  0.0000  0.0000  0.0000  0.0000  0.0000  0.0000      0.0000  0.0000  0.0000  0.0000  0.0000  0.0000  0.0000  0.0000  0.0000  0.0000
  o =  0.8272  v =  0.0000  0.0000  1.0000  0.0000  0.0000  0.0000  0.0000  0.0000  0.0000  0.0000      0.0000  0.0000  0.0000  0.0000  0.0000  0.0000  0.0000  0.0000  0.0000  0.0000
  o =  0.8272  v =  1.0000  0.0000  0.0000  0.0000  0.0000  0.0000  0.0000  0.0000  0.0000  0.0000      0.0000  0.0000  0.0000  0.0000  0.0000  0.0000  0.0000  0.0000  0.0000  0.0000
  o =  0.8272  v =  0.0000  0.0000  0.0000  1.0000  0.0000  0.0000  0.0000  0.0000  0.0000  0.0000      0.0000  0.0000  0.0000  0.0000  0.0000  0.0000  0.0000  0.0000  0.0000  0.0000
  o =  0.8272  v =  0.0000  0.0000  0.0000  0.0000  1.0000  0.0000  0.0000  0.0000  0.0000  0.0000      0.0000  0.0000  0.0000  0.0000  0.0000  0.0000  0.0000  0.0000  0.0000  0.0000
atom =   8  type =  2  l = 2
 
 onsite density matrix
 
spin component  1
 
  0.8272  0.0000  0.0000  0.0000  0.0000
  0.0000  0.8272  0.0000  0.0000  0.0000
  0.0000  0.0000  0.8272  0.0000  0.0000
  0.0000  0.0000  0.0000  0.8272  0.0000
  0.0000  0.0000  0.0000  0.0000  0.8272
 
spin component  2
 
  0.2256  0.0000  0.0000  0.0000  0.0000
  0.0000  0.2256  0.0000  0.0000  0.0000
  0.0000  0.0000  0.2256  0.0000  0.0000
  0.0000  0.0000  0.0000  0.2256  0.0000
  0.0000  0.0000  0.0000  0.0000  0.2256
 
 occupancies and eigenvectors
 
  o =  0.2256  v =  0.0000  0.0000  0.0000  0.0000  0.0000  0.0000  0.0000  1.0000  0.0000  0.0000      0.0000  0.0000  0.0000  0.0000  0.0000  0.0000  0.0000  0.0000  0.0000  0.0000
  o =  0.2256  v =  0.0000  0.0000  0.0000  0.0000  0.0000  1.0000  0.0000  0.0000  0.0000  0.0000      0.0000  0.0000  0.0000  0.0000  0.0000  0.0000  0.0000  0.0000  0.0000  0.0000
  o =  0.2256  v =  0.0000  0.0000  0.0000  0.0000  0.0000  0.0000  1.0000  0.0000  0.0000  0.0000      0.0000  0.0000  0.0000  0.0000  0.0000  0.0000  0.0000  0.0000  0.0000  0.0000
  o =  0.2256  v =  0.0000  0.0000  0.0000  0.0000  0.0000  0.0000  0.0000  0.0000  1.0000  0.0000      0.0000  0.0000  0.0000  0.0000  0.0000  0.0000  0.0000  0.0000  0.0000  0.0000
  o =  0.2256  v =  0.0000  0.0000  0.0000  0.0000  0.0000  0.0000  0.0000  0.0000  0.0000  1.0000      0.0000  0.0000  0.0000  0.0000  0.0000  0.0000  0.0000  0.0000  0.0000  0.0000
  o =  0.8272  v =  0.0000  1.0000  0.0000  0.0000  0.0000  0.0000  0.0000  0.0000  0.0000  0.0000      0.0000  0.0000  0.0000  0.0000  0.0000  0.0000  0.0000  0.0000  0.0000  0.0000
  o =  0.8272  v =  0.0000  0.0000  1.0000  0.0000  0.0000  0.0000  0.0000  0.0000  0.0000  0.0000      0.0000  0.0000  0.0000  0.0000  0.0000  0.0000  0.0000  0.0000  0.0000  0.0000
  o =  0.8272  v =  1.0000  0.0000  0.0000  0.0000  0.0000  0.0000  0.0000  0.0000  0.0000  0.0000      0.0000  0.0000  0.0000  0.0000  0.0000  0.0000  0.0000  0.0000  0.0000  0.0000
  o =  0.8272  v =  0.0000  0.0000  0.0000  1.0000  0.0000  0.0000  0.0000  0.0000  0.0000  0.0000      0.0000  0.0000  0.0000  0.0000  0.0000  0.0000  0.0000  0.0000  0.0000  0.0000
  o =  0.8272  v =  0.0000  0.0000  0.0000  0.0000  1.0000  0.0000  0.0000  0.0000  0.0000  0.0000      0.0000  0.0000  0.0000  0.0000  0.0000  0.0000  0.0000  0.0000  0.0000  0.0000
atom =   9  type =  2  l = 2
 
 onsite density matrix
 
spin component  1
 
  0.8272  0.0000  0.0000  0.0000  0.0000
  0.0000  0.8272  0.0000  0.0000  0.0000
  0.0000  0.0000  0.8272  0.0000  0.0000
  0.0000  0.0000  0.0000  0.8272  0.0000
  0.0000  0.0000  0.0000  0.0000  0.8272
 
spin component  2
 
  0.2256  0.0000  0.0000  0.0000  0.0000
  0.0000  0.2256  0.0000  0.0000  0.0000
  0.0000  0.0000  0.2256  0.0000  0.0000
  0.0000  0.0000  0.0000  0.2256  0.0000
  0.0000  0.0000  0.0000  0.0000  0.2256
 
 occupancies and eigenvectors
 
  o =  0.2256  v =  0.0000  0.0000  0.0000  0.0000  0.0000  0.0000  0.0000  1.0000  0.0000  0.0000      0.0000  0.0000  0.0000  0.0000  0.0000  0.0000  0.0000  0.0000  0.0000  0.0000
  o =  0.2256  v =  0.0000  0.0000  0.0000  0.0000  0.0000  1.0000  0.0000  0.0000  0.0000  0.0000      0.0000  0.0000  0.0000  0.0000  0.0000  0.0000  0.0000  0.0000  0.0000  0.0000
  o =  0.2256  v =  0.0000  0.0000  0.0000  0.0000  0.0000  0.0000  1.0000  0.0000  0.0000  0.0000      0.0000  0.0000  0.0000  0.0000  0.0000  0.0000  0.0000  0.0000  0.0000  0.0000
  o =  0.2256  v =  0.0000  0.0000  0.0000  0.0000  0.0000  0.0000  0.0000  0.0000  1.0000  0.0000      0.0000  0.0000  0.0000  0.0000  0.0000  0.0000  0.0000  0.0000  0.0000  0.0000
  o =  0.2256  v =  0.0000  0.0000  0.0000  0.0000  0.0000  0.0000  0.0000  0.0000  0.0000  1.0000      0.0000  0.0000  0.0000  0.0000  0.0000  0.0000  0.0000  0.0000  0.0000  0.0000
  o =  0.8272  v =  0.0000  1.0000  0.0000  0.0000  0.0000  0.0000  0.0000  0.0000  0.0000  0.0000      0.0000  0.0000  0.0000  0.0000  0.0000  0.0000  0.0000  0.0000  0.0000  0.0000
  o =  0.8272  v =  0.0000  0.0000  1.0000  0.0000  0.0000  0.0000  0.0000  0.0000  0.0000  0.0000      0.0000  0.0000  0.0000  0.0000  0.0000  0.0000  0.0000  0.0000  0.0000  0.0000
  o =  0.8272  v =  1.0000  0.0000  0.0000  0.0000  0.0000  0.0000  0.0000  0.0000  0.0000  0.0000      0.0000  0.0000  0.0000  0.0000  0.0000  0.0000  0.0000  0.0000  0.0000  0.0000
  o =  0.8272  v =  0.0000  0.0000  0.0000  1.0000  0.0000  0.0000  0.0000  0.0000  0.0000  0.0000      0.0000  0.0000  0.0000  0.0000  0.0000  0.0000  0.0000  0.0000  0.0000  0.0000
  o =  0.8272  v =  0.0000  0.0000  0.0000  0.0000  1.0000  0.0000  0.0000  0.0000  0.0000  0.0000      0.0000  0.0000  0.0000  0.0000  0.0000  0.0000  0.0000  0.0000  0.0000  0.0000
atom =  10  type =  2  l = 2
 
 onsite density matrix
 
spin component  1
 
  0.8272  0.0000  0.0000  0.0000  0.0000
  0.0000  0.8272  0.0000  0.0000  0.0000
  0.0000  0.0000  0.8272  0.0000  0.0000
  0.0000  0.0000  0.0000  0.8272  0.0000
  0.0000  0.0000  0.0000  0.0000  0.8272
 
spin component  2
 
  0.2256  0.0000  0.0000  0.0000  0.0000
  0.0000  0.2256  0.0000  0.0000  0.0000
  0.0000  0.0000  0.2256  0.0000  0.0000
  0.0000  0.0000  0.0000  0.2256  0.0000
  0.0000  0.0000  0.0000  0.0000  0.2256
 
 occupancies and eigenvectors
 
  o =  0.2256  v =  0.0000  0.0000  0.0000  0.0000  0.0000  0.0000  0.0000  1.0000  0.0000  0.0000      0.0000  0.0000  0.0000  0.0000  0.0000  0.0000  0.0000  0.0000  0.0000  0.0000
  o =  0.2256  v =  0.0000  0.0000  0.0000  0.0000  0.0000  1.0000  0.0000  0.0000  0.0000  0.0000      0.0000  0.0000  0.0000  0.0000  0.0000  0.0000  0.0000  0.0000  0.0000  0.0000
  o =  0.2256  v =  0.0000  0.0000  0.0000  0.0000  0.0000  0.0000  1.0000  0.0000  0.0000  0.0000      0.0000  0.0000  0.0000  0.0000  0.0000  0.0000  0.0000  0.0000  0.0000  0.0000
  o =  0.2256  v =  0.0000  0.0000  0.0000  0.0000  0.0000  0.0000  0.0000  0.0000  1.0000  0.0000      0.0000  0.0000  0.0000  0.0000  0.0000  0.0000  0.0000  0.0000  0.0000  0.0000
  o =  0.2256  v =  0.0000  0.0000  0.0000  0.0000  0.0000  0.0000  0.0000  0.0000  0.0000  1.0000      0.0000  0.0000  0.0000  0.0000  0.0000  0.0000  0.0000  0.0000  0.0000  0.0000
  o =  0.8272  v =  0.0000  1.0000  0.0000  0.0000  0.0000  0.0000  0.0000  0.0000  0.0000  0.0000      0.0000  0.0000  0.0000  0.0000  0.0000  0.0000  0.0000  0.0000  0.0000  0.0000
  o =  0.8272  v =  0.0000  0.0000  1.0000  0.0000  0.0000  0.0000  0.0000  0.0000  0.0000  0.0000      0.0000  0.0000  0.0000  0.0000  0.0000  0.0000  0.0000  0.0000  0.0000  0.0000
  o =  0.8272  v =  1.0000  0.0000  0.0000  0.0000  0.0000  0.0000  0.0000  0.0000  0.0000  0.0000      0.0000  0.0000  0.0000  0.0000  0.0000  0.0000  0.0000  0.0000  0.0000  0.0000
  o =  0.8272  v =  0.0000  0.0000  0.0000  1.0000  0.0000  0.0000  0.0000  0.0000  0.0000  0.0000      0.0000  0.0000  0.0000  0.0000  0.0000  0.0000  0.0000  0.0000  0.0000  0.0000
  o =  0.8272  v =  0.0000  0.0000  0.0000  0.0000  1.0000  0.0000  0.0000  0.0000  0.0000  0.0000      0.0000  0.0000  0.0000  0.0000  0.0000  0.0000  0.0000  0.0000  0.0000  0.0000
atom =  11  type =  2  l = 2
 
 onsite density matrix
 
spin component  1
 
  0.8272  0.0000  0.0000  0.0000  0.0000
  0.0000  0.8272  0.0000  0.0000  0.0000
  0.0000  0.0000  0.8272  0.0000  0.0000
  0.0000  0.0000  0.0000  0.8272  0.0000
  0.0000  0.0000  0.0000  0.0000  0.8272
 
spin component  2
 
  0.2256  0.0000  0.0000  0.0000  0.0000
  0.0000  0.2256  0.0000  0.0000  0.0000
  0.0000  0.0000  0.2256  0.0000  0.0000
  0.0000  0.0000  0.0000  0.2256  0.0000
  0.0000  0.0000  0.0000  0.0000  0.2256
 
 occupancies and eigenvectors
 
  o =  0.2256  v =  0.0000  0.0000  0.0000  0.0000  0.0000  0.0000  0.0000  1.0000  0.0000  0.0000      0.0000  0.0000  0.0000  0.0000  0.0000  0.0000  0.0000  0.0000  0.0000  0.0000
  o =  0.2256  v =  0.0000  0.0000  0.0000  0.0000  0.0000  1.0000  0.0000  0.0000  0.0000  0.0000      0.0000  0.0000  0.0000  0.0000  0.0000  0.0000  0.0000  0.0000  0.0000  0.0000
  o =  0.2256  v =  0.0000  0.0000  0.0000  0.0000  0.0000  0.0000  1.0000  0.0000  0.0000  0.0000      0.0000  0.0000  0.0000  0.0000  0.0000  0.0000  0.0000  0.0000  0.0000  0.0000
  o =  0.2256  v =  0.0000  0.0000  0.0000  0.0000  0.0000  0.0000  0.0000  0.0000  1.0000  0.0000      0.0000  0.0000  0.0000  0.0000  0.0000  0.0000  0.0000  0.0000  0.0000  0.0000
  o =  0.2256  v =  0.0000  0.0000  0.0000  0.0000  0.0000  0.0000  0.0000  0.0000  0.0000  1.0000      0.0000  0.0000  0.0000  0.0000  0.0000  0.0000  0.0000  0.0000  0.0000  0.0000
  o =  0.8272  v =  0.0000  1.0000  0.0000  0.0000  0.0000  0.0000  0.0000  0.0000  0.0000  0.0000      0.0000  0.0000  0.0000  0.0000  0.0000  0.0000  0.0000  0.0000  0.0000  0.0000
  o =  0.8272  v =  0.0000  0.0000  1.0000  0.0000  0.0000  0.0000  0.0000  0.0000  0.0000  0.0000      0.0000  0.0000  0.0000  0.0000  0.0000  0.0000  0.0000  0.0000  0.0000  0.0000
  o =  0.8272  v =  1.0000  0.0000  0.0000  0.0000  0.0000  0.0000  0.0000  0.0000  0.0000  0.0000      0.0000  0.0000  0.0000  0.0000  0.0000  0.0000  0.0000  0.0000  0.0000  0.0000
  o =  0.8272  v =  0.0000  0.0000  0.0000  1.0000  0.0000  0.0000  0.0000  0.0000  0.0000  0.0000      0.0000  0.0000  0.0000  0.0000  0.0000  0.0000  0.0000  0.0000  0.0000  0.0000
  o =  0.8272  v =  0.0000  0.0000  0.0000  0.0000  1.0000  0.0000  0.0000  0.0000  0.0000  0.0000      0.0000  0.0000  0.0000  0.0000  0.0000  0.0000  0.0000  0.0000  0.0000  0.0000
atom =  12  type =  3  l = 2
 
 onsite density matrix
 
spin component  1
 
  1.1008  0.0000  0.0000  0.0000  0.0000
  0.0000  1.1008  0.0000  0.0000  0.0000
  0.0000  0.0000  1.1008  0.0000  0.0000
  0.0000  0.0000  0.0000  1.1008  0.0000
  0.0000  0.0000  0.0000  0.0000  1.1008
 
spin component  2
 
  0.5927  0.0000  0.0000  0.0000  0.0000
  0.0000  0.5927  0.0000  0.0000  0.0000
  0.0000  0.0000  0.5927  0.0000  0.0000
  0.0000  0.0000  0.0000  0.5927  0.0000
  0.0000  0.0000  0.0000  0.0000  0.5927
 
 occupancies and eigenvectors
 
  o =  0.5927  v =  0.0000  0.0000  0.0000  0.0000  0.0000  1.0000  0.0000  0.0000  0.0000  0.0000      0.0000  0.0000  0.0000  0.0000  0.0000  0.0000  0.0000  0.0000  0.0000  0.0000
  o =  0.5927  v =  0.0000  0.0000  0.0000  0.0000  0.0000  0.0000  1.0000  0.0000  0.0000  0.0000      0.0000  0.0000  0.0000  0.0000  0.0000  0.0000  0.0000  0.0000  0.0000  0.0000
  o =  0.5927  v =  0.0000  0.0000  0.0000  0.0000  0.0000  0.0000  0.0000  1.0000  0.0000  0.0000      0.0000  0.0000  0.0000  0.0000  0.0000  0.0000  0.0000  0.0000  0.0000  0.0000
  o =  0.5927  v =  0.0000  0.0000  0.0000  0.0000  0.0000  0.0000  0.0000  0.0000  1.0000  0.0000      0.0000  0.0000  0.0000  0.0000  0.0000  0.0000  0.0000  0.0000  0.0000  0.0000
  o =  0.5927  v =  0.0000  0.0000  0.0000  0.0000  0.0000  0.0000  0.0000  0.0000  0.0000  1.0000      0.0000  0.0000  0.0000  0.0000  0.0000  0.0000  0.0000  0.0000  0.0000  0.0000
  o =  1.1008  v =  1.0000  0.0000  0.0000  0.0000  0.0000  0.0000  0.0000  0.0000  0.0000  0.0000      0.0000  0.0000  0.0000  0.0000  0.0000  0.0000  0.0000  0.0000  0.0000  0.0000
  o =  1.1008  v =  0.0000  1.0000  0.0000  0.0000  0.0000  0.0000  0.0000  0.0000  0.0000  0.0000      0.0000  0.0000  0.0000  0.0000  0.0000  0.0000  0.0000  0.0000  0.0000  0.0000
  o =  1.1008  v =  0.0000  0.0000  1.0000  0.0000  0.0000  0.0000  0.0000  0.0000  0.0000  0.0000      0.0000  0.0000  0.0000  0.0000  0.0000  0.0000  0.0000  0.0000  0.0000  0.0000
  o =  1.1008  v =  0.0000  0.0000  0.0000  1.0000  0.0000  0.0000  0.0000  0.0000  0.0000  0.0000      0.0000  0.0000  0.0000  0.0000  0.0000  0.0000  0.0000  0.0000  0.0000  0.0000
  o =  1.1008  v =  0.0000  0.0000  0.0000  0.0000  1.0000  0.0000  0.0000  0.0000  0.0000  0.0000      0.0000  0.0000  0.0000  0.0000  0.0000  0.0000  0.0000  0.0000  0.0000  0.0000
atom =  13  type =  4  l = 0
 
 onsite density matrix
 
spin component  1
 
  0.8190
 
spin component  2
 
  0.8190
 
 occupancies and eigenvectors
 
  o =  0.8190  v =  1.0000  0.0000      0.0000  0.0000
  o =  0.8190  v =  0.0000  1.0000      0.0000  0.0000
atom =  14  type =  4  l = 0
 
 onsite density matrix
 
spin component  1
 
  0.8190
 
spin component  2
 
  0.8190
 
 occupancies and eigenvectors
 
  o =  0.8190  v =  1.0000  0.0000      0.0000  0.0000
  o =  0.8190  v =  0.0000  1.0000      0.0000  0.0000
atom =  15  type =  4  l = 0
 
 onsite density matrix
 
spin component  1
 
  0.8190
 
spin component  2
 
  0.8190
 
 occupancies and eigenvectors
 
  o =  0.8190  v =  1.0000  0.0000      0.0000  0.0000
  o =  0.8190  v =  0.0000  1.0000      0.0000  0.0000
atom =  16  type =  4  l = 0
 
 onsite density matrix
 
spin component  1
 
  0.8190
 
spin component  2
 
  0.8190
 
 occupancies and eigenvectors
 
  o =  0.8190  v =  1.0000  0.0000      0.0000  0.0000
  o =  0.8190  v =  0.0000  1.0000      0.0000  0.0000
atom =  17  type =  4  l = 0
 
 onsite density matrix
 
spin component  1
 
  0.8190
 
spin component  2
 
  0.8190
 
 occupancies and eigenvectors
 
  o =  0.8190  v =  1.0000  0.0000      0.0000  0.0000
  o =  0.8190  v =  0.0000  1.0000      0.0000  0.0000
atom =  18  type =  4  l = 0
 
 onsite density matrix
 
spin component  1
 
  0.8190
 
spin component  2
 
  0.8190
 
 occupancies and eigenvectors
 
  o =  0.8190  v =  1.0000  0.0000      0.0000  0.0000
  o =  0.8190  v =  0.0000  1.0000      0.0000  0.0000
atom =  19  type =  4  l = 0
 
 onsite density matrix
 
spin component  1
 
  0.8190
 
spin component  2
 
  0.8190
 
 occupancies and eigenvectors
 
  o =  0.8190  v =  1.0000  0.0000      0.0000  0.0000
  o =  0.8190  v =  0.0000  1.0000      0.0000  0.0000
atom =  20  type =  4  l = 0
 
 onsite density matrix
 
spin component  1
 
  0.8190
 
spin component  2
 
  0.8190
 
 occupancies and eigenvectors
 
  o =  0.8190  v =  1.0000  0.0000      0.0000  0.0000
  o =  0.8190  v =  0.0000  1.0000      0.0000  0.0000
atom =  21  type =  4  l = 0
 
 onsite density matrix
 
spin component  1
 
  0.8190
 
spin component  2
 
  0.8190
 
 occupancies and eigenvectors
 
  o =  0.8190  v =  1.0000  0.0000      0.0000  0.0000
  o =  0.8190  v =  0.0000  1.0000      0.0000  0.0000
atom =  22  type =  4  l = 0
 
 onsite density matrix
 
spin component  1
 
  0.8190
 
spin component  2
 
  0.8190
 
 occupancies and eigenvectors
 
  o =  0.8190  v =  1.0000  0.0000      0.0000  0.0000
  o =  0.8190  v =  0.0000  1.0000      0.0000  0.0000
atom =  23  type =  4  l = 0
 
 onsite density matrix
 
spin component  1
 
  0.8190
 
spin component  2
 
  0.8190
 
 occupancies and eigenvectors
 
  o =  0.8190  v =  1.0000  0.0000      0.0000  0.0000
  o =  0.8190  v =  0.0000  1.0000      0.0000  0.0000
atom =  24  type =  4  l = 0
 
 onsite density matrix
 
spin component  1
 
  0.8190
 
spin component  2
 
  0.8190
 
 occupancies and eigenvectors
 
  o =  0.8190  v =  1.0000  0.0000      0.0000  0.0000
  o =  0.8190  v =  0.0000  1.0000      0.0000  0.0000
atom =  25  type =  4  l = 0
 
 onsite density matrix
 
spin component  1
 
  0.8190
 
spin component  2
 
  0.8190
 
 occupancies and eigenvectors
 
  o =  0.8190  v =  1.0000  0.0000      0.0000  0.0000
  o =  0.8190  v =  0.0000  1.0000      0.0000  0.0000
atom =  26  type =  4  l = 0
 
 onsite density matrix
 
spin component  1
 
  0.8190
 
spin component  2
 
  0.8190
 
 occupancies and eigenvectors
 
  o =  0.8190  v =  1.0000  0.0000      0.0000  0.0000
  o =  0.8190  v =  0.0000  1.0000      0.0000  0.0000
atom =  27  type =  4  l = 0
 
 onsite density matrix
 
spin component  1
 
  0.8190
 
spin component  2
 
  0.8190
 
 occupancies and eigenvectors
 
  o =  0.8190  v =  1.0000  0.0000      0.0000  0.0000
  o =  0.8190  v =  0.0000  1.0000      0.0000  0.0000
atom =  28  type =  4  l = 0
 
 onsite density matrix
 
spin component  1
 
  0.8190
 
spin component  2
 
  0.8190
 
 occupancies and eigenvectors
 
  o =  0.8190  v =  1.0000  0.0000      0.0000  0.0000
  o =  0.8190  v =  0.0000  1.0000      0.0000  0.0000
atom =  29  type =  4  l = 0
 
 onsite density matrix
 
spin component  1
 
  0.8190
 
spin component  2
 
  0.8190
 
 occupancies and eigenvectors
 
  o =  0.8190  v =  1.0000  0.0000      0.0000  0.0000
  o =  0.8190  v =  0.0000  1.0000      0.0000  0.0000
atom =  30  type =  4  l = 0
 
 onsite density matrix
 
spin component  1
 
  0.8190
 
spin component  2
 
  0.8190
 
 occupancies and eigenvectors
 
  o =  0.8190  v =  1.0000  0.0000      0.0000  0.0000
  o =  0.8190  v =  0.0000  1.0000      0.0000  0.0000
     EDDAV:  cpu time    1.6688: real time    1.6823
 BZINTS: Fermi energy: 30.946735;219.000000 electrons
         Band energy:3261.722733;  BLOECHL correction: -0.087288
       DOS:  cpu time    0.0037: real time    0.0039
    --------------------------------------------
      LOOP:  cpu time    1.7927: real time    1.8097

 eigenvalue-minimisations  :  2464
 total energy-change (2. order) : 0.3567316E+04  (-0.7502491E+04)
 number of electron     219.0000000 magnetization      23.0000000
 augmentation part      219.0000000 magnetization      23.0000000

 Free energy of the ion-electron system (eV)
  ---------------------------------------------------
  alpha Z        PSCENC =       963.94031444
  Ewald energy   TEWEN  =    -14572.71634104
  -Hartree energ DENC   =     -2931.38445307
  -exchange      EXHF   =         0.00000000
  -V(xc)+E(xc)   XCENC  =       666.88294500
  PAW double counting   =     13087.43818639   -13048.29315604
  entropy T*S    EENTRO =         0.00000000
  eigenvalues    EBANDS =      3261.72273348
  atomic energy  EATOM  =     16139.72541369
  Solvation  Ediel_sol  =         0.00000000
  ---------------------------------------------------
  free energy    TOTEN  =      3567.31564283 eV

  energy without entropy =     3567.31564283  energy(sigma->0) =     3567.31564283


--------------------------------------------------------------------------------------------------------




--------------------------------------- Iteration      1(   2)  ---------------------------------------


     EDDAV:  cpu time    1.6947: real time    1.7046
 BZINTS: Fermi energy: 16.224681;218.939917 electrons
         Band energy: 941.190127;  BLOECHL correction: -0.019119
       DOS:  cpu time    0.0048: real time    0.0051
    --------------------------------------------
      LOOP:  cpu time    1.6995: real time    1.7096

 eigenvalue-minimisations  :  2552
 total energy-change (2. order) :-0.2320533E+04  (-0.2082455E+04)
 number of electron     219.0000000 magnetization      23.0000000
 augmentation part      219.0000000 magnetization      23.0000000

 Free energy of the ion-electron system (eV)
  ---------------------------------------------------
  alpha Z        PSCENC =       963.94031444
  Ewald energy   TEWEN  =    -14572.71634104
  -Hartree energ DENC   =     -2931.38445307
  -exchange      EXHF   =         0.00000000
  -V(xc)+E(xc)   XCENC  =       666.88294500
  PAW double counting   =     13087.43818639   -13048.29315604
  entropy T*S    EENTRO =         0.00000000
  eigenvalues    EBANDS =       941.19012670
  atomic energy  EATOM  =     16139.72541369
  Solvation  Ediel_sol  =         0.00000000
  ---------------------------------------------------
  free energy    TOTEN  =      1246.78303606 eV

  energy without entropy =     1246.78303606  energy(sigma->0) =     1246.78303606


--------------------------------------------------------------------------------------------------------




--------------------------------------- Iteration      1(   3)  ---------------------------------------


     EDDAV:  cpu time    1.7955: real time    1.8044
 BZINTS: Fermi energy: 11.894170;219.000000 electrons
         Band energy: -40.762736;  BLOECHL correction: -0.014047
       DOS:  cpu time    0.0034: real time    0.0034
    --------------------------------------------
      LOOP:  cpu time    1.7989: real time    1.8079

 eigenvalue-minimisations  :  2712
 total energy-change (2. order) :-0.9819529E+03  (-0.8849383E+03)
 number of electron     219.0000000 magnetization      23.0000000
 augmentation part      219.0000000 magnetization      23.0000000

 Free energy of the ion-electron system (eV)
  ---------------------------------------------------
  alpha Z        PSCENC =       963.94031444
  Ewald energy   TEWEN  =    -14572.71634104
  -Hartree energ DENC   =     -2931.38445307
  -exchange      EXHF   =         0.00000000
  -V(xc)+E(xc)   XCENC  =       666.88294500
  PAW double counting   =     13087.43818639   -13048.29315604
  entropy T*S    EENTRO =         0.00000000
  eigenvalues    EBANDS =       -40.76273621
  atomic energy  EATOM  =     16139.72541369
  Solvation  Ediel_sol  =         0.00000000
  ---------------------------------------------------
  free energy    TOTEN  =       264.83017315 eV

  energy without entropy =      264.83017315  energy(sigma->0) =      264.83017315


--------------------------------------------------------------------------------------------------------




--------------------------------------- Iteration      1(   4)  ---------------------------------------


     EDDAV:  cpu time    2.2850: real time    2.2984
 BZINTS: Fermi energy: 11.113287;219.000000 electrons
         Band energy:-471.708964;  BLOECHL correction: -0.000426
       DOS:  cpu time    0.0033: real time    0.0033
    --------------------------------------------
      LOOP:  cpu time    2.2882: real time    2.3017

 eigenvalue-minimisations  :  3688
 total energy-change (2. order) :-0.4309462E+03  (-0.4032666E+03)
 number of electron     219.0000000 magnetization      23.0000000
 augmentation part      219.0000000 magnetization      23.0000000

 Free energy of the ion-electron system (eV)
  ---------------------------------------------------
  alpha Z        PSCENC =       963.94031444
  Ewald energy   TEWEN  =    -14572.71634104
  -Hartree energ DENC   =     -2931.38445307
  -exchange      EXHF   =         0.00000000
  -V(xc)+E(xc)   XCENC  =       666.88294500
  PAW double counting   =     13087.43818639   -13048.29315604
  entropy T*S    EENTRO =         0.00000000
  eigenvalues    EBANDS =      -471.70896430
  atomic energy  EATOM  =     16139.72541369
  Solvation  Ediel_sol  =         0.00000000
  ---------------------------------------------------
  free energy    TOTEN  =      -166.11605494 eV

  energy without entropy =     -166.11605494  energy(sigma->0) =     -166.11605494


--------------------------------------------------------------------------------------------------------




--------------------------------------- Iteration      1(   5)  ---------------------------------------


     EDDAV:  cpu time    2.5018: real time    2.5137
 BZINTS: Fermi energy: 10.756163;219.000000 electrons
         Band energy:-566.494663;  BLOECHL correction: -0.043586
       DOS:  cpu time    0.0037: real time    0.0037
    CHARGE:  cpu time    0.1082: real time    0.1090
    MIXING:  cpu time    0.0043: real time    0.0045
    --------------------------------------------
      LOOP:  cpu time    2.6181: real time    2.6309

 eigenvalue-minimisations  :  4120
 total energy-change (2. order) :-0.9478570E+02  (-0.9162410E+02)
 number of electron     218.9999996 magnetization      21.9590581
 augmentation part       23.3708053 magnetization      15.1160703

 Broyden mixing:
  rms(total) = 0.68785E+01    rms(broyden)= 0.68781E+01
  rms(prec ) = 0.75566E+01
  weight for this iteration     100.00

 Free energy of the ion-electron system (eV)
  ---------------------------------------------------
  alpha Z        PSCENC =       963.94031444
  Ewald energy   TEWEN  =    -14572.71634104
  -Hartree energ DENC   =     -2931.38445307
  -exchange      EXHF   =         0.00000000
  -V(xc)+E(xc)   XCENC  =       666.88294500
  PAW double counting   =     13087.43818639   -13048.29315604
  entropy T*S    EENTRO =         0.00000000
  eigenvalues    EBANDS =      -566.49466294
  atomic energy  EATOM  =     16139.72541369
  Solvation  Ediel_sol  =         0.00000000
  ---------------------------------------------------
  free energy    TOTEN  =      -260.90175358 eV

  energy without entropy =     -260.90175358  energy(sigma->0) =     -260.90175358


--------------------------------------------------------------------------------------------------------




--------------------------------------- Iteration      1(   6)  ---------------------------------------


    POTLOK:  cpu time    0.1053: real time    0.1172
    SETDIJ:  cpu time    0.0147: real time    0.0148
atom =   1  type =  1  l = 0
 
 onsite density matrix
 
spin component  1
 
  1.0559
 
spin component  2
 
  1.0559
 
 occupancies and eigenvectors
 
  o =  1.0559  v =  0.0000  1.0000      0.0000  0.0000
  o =  1.0559  v =  1.0000  0.0000      0.0000  0.0000
atom =   2  type =  1  l = 0
 
 onsite density matrix
 
spin component  1
 
  1.0559
 
spin component  2
 
  1.0559
 
 occupancies and eigenvectors
 
  o =  1.0559  v =  0.0000  1.0000      0.0000  0.0000
  o =  1.0559  v =  1.0000  0.0000      0.0000  0.0000
atom =   3  type =  1  l = 0
 
 onsite density matrix
 
spin component  1
 
  1.0566
 
spin component  2
 
  1.0565
 
 occupancies and eigenvectors
 
  o =  1.0565  v =  0.0000  1.0000      0.0000  0.0000
  o =  1.0566  v =  1.0000  0.0000      0.0000  0.0000
atom =   4  type =  1  l = 0
 
 onsite density matrix
 
spin component  1
 
  1.0566
 
spin component  2
 
  1.0553
 
 occupancies and eigenvectors
 
  o =  1.0553  v =  0.0000  1.0000      0.0000  0.0000
  o =  1.0566  v =  1.0000  0.0000      0.0000  0.0000
atom =   5  type =  1  l = 0
 
 onsite density matrix
 
spin component  1
 
  1.0566
 
spin component  2
 
  1.0553
 
 occupancies and eigenvectors
 
  o =  1.0553  v =  0.0000  1.0000      0.0000  0.0000
  o =  1.0566  v =  1.0000  0.0000      0.0000  0.0000
atom =   6  type =  1  l = 0
 
 onsite density matrix
 
spin component  1
 
  1.0566
 
spin component  2
 
  1.0565
 
 occupancies and eigenvectors
 
  o =  1.0565  v =  0.0000  1.0000      0.0000  0.0000
  o =  1.0566  v =  1.0000  0.0000      0.0000  0.0000
atom =   7  type =  2  l = 2
 
 onsite density matrix
 
spin component  1
 
  0.9469  0.0012 -0.0016  0.0012 -0.0000
  0.0012  0.9469  0.0008  0.0012 -0.0014
 -0.0016  0.0008  0.4983  0.0008 -0.0000
  0.0012  0.0012  0.0008  0.9469  0.0014
 -0.0000 -0.0014 -0.0000  0.0014  0.4983
 
spin component  2
 
  0.0280 -0.0007  0.0008 -0.0007  0.0000
 -0.0007  0.0280 -0.0004 -0.0007  0.0007
  0.0008 -0.0004  0.3421 -0.0004 -0.0000
 -0.0007 -0.0007 -0.0004  0.0280 -0.0007
  0.0000  0.0007 -0.0000 -0.0007  0.3421
 
 occupancies and eigenvectors
 
  o =  0.0265  v =  0.0000  0.0000  0.0000  0.0000  0.0000 -0.5774 -0.5774 -0.0000 -0.5774  0.0000      0.0000  0.0000  0.0000  0.0000  0.0000  0.0000  0.0000  0.0000  0.0000  0.0000
  o =  0.0287  v =  0.0000  0.0000  0.0000  0.0000  0.0000 -0.0048 -0.7047  0.0000  0.7095  0.0033      0.0000  0.0000  0.0000  0.0000  0.0000  0.0000  0.0000  0.0000  0.0000  0.0000
  o =  0.0287  v =  0.0000  0.0000  0.0000  0.0000  0.0000  0.8165 -0.4124 -0.0033 -0.4041  0.0000      0.0000  0.0000  0.0000  0.0000  0.0000  0.0000  0.0000  0.0000  0.0000  0.0000
  o =  0.3422  v =  0.0000  0.0000  0.0000  0.0000  0.0000 -0.0027  0.0013 -1.0000  0.0013 -0.0000      0.0000  0.0000  0.0000  0.0000  0.0000  0.0000  0.0000  0.0000  0.0000  0.0000
  o =  0.3422  v =  0.0000  0.0000  0.0000  0.0000  0.0000  0.0000  0.0023 -0.0000 -0.0023  1.0000      0.0000  0.0000  0.0000  0.0000  0.0000  0.0000  0.0000  0.0000  0.0000  0.0000
  o =  0.4983  v =  0.0035 -0.0018  1.0000 -0.0018  0.0000  0.0000  0.0000  0.0000  0.0000  0.0000      0.0000  0.0000  0.0000  0.0000  0.0000  0.0000  0.0000  0.0000  0.0000  0.0000
  o =  0.4983  v = -0.0000  0.0031 -0.0000 -0.0031  1.0000  0.0000  0.0000  0.0000  0.0000  0.0000      0.0000  0.0000  0.0000  0.0000  0.0000  0.0000  0.0000  0.0000  0.0000  0.0000
  o =  0.9457  v = -0.2782  0.8039  0.0015 -0.5257 -0.0041  0.0000  0.0000  0.0000  0.0000  0.0000      0.0000  0.0000  0.0000  0.0000  0.0000  0.0000  0.0000  0.0000  0.0000  0.0000
  o =  0.9457  v = -0.7676  0.1429  0.0041  0.6247  0.0015  0.0000  0.0000  0.0000  0.0000  0.0000      0.0000  0.0000  0.0000  0.0000  0.0000  0.0000  0.0000  0.0000  0.0000  0.0000
  o =  0.9493  v = -0.5774 -0.5774  0.0000 -0.5774 -0.0000  0.0000  0.0000  0.0000  0.0000  0.0000      0.0000  0.0000  0.0000  0.0000  0.0000  0.0000  0.0000  0.0000  0.0000  0.0000
atom =   8  type =  2  l = 2
 
 onsite density matrix
 
spin component  1
 
  0.9343  0.0002 -0.0058  0.0002 -0.0000
  0.0002  0.9343  0.0029  0.0002 -0.0050
 -0.0058  0.0029  0.4068  0.0029  0.0000
  0.0002  0.0002  0.0029  0.9343  0.0050
 -0.0000 -0.0050  0.0000  0.0050  0.4068
 
spin component  2
 
  0.0455 -0.0002  0.0038 -0.0002 -0.0000
 -0.0002  0.0455 -0.0019 -0.0002  0.0033
  0.0038 -0.0019  0.4137 -0.0019  0.0000
 -0.0002 -0.0002 -0.0019  0.0455 -0.0033
 -0.0000  0.0033  0.0000 -0.0033  0.4137
 
 occupancies and eigenvectors
 
  o =  0.0452  v =  0.0000  0.0000  0.0000  0.0000  0.0000  0.5774  0.5774 -0.0000  0.5774 -0.0000      0.0000  0.0000  0.0000  0.0000  0.0000  0.0000  0.0000  0.0000  0.0000  0.0000
  o =  0.0457  v =  0.0000  0.0000  0.0000  0.0000  0.0000  0.8157 -0.4368 -0.0127 -0.3789  0.0005      0.0000  0.0000  0.0000  0.0000  0.0000  0.0000  0.0000  0.0000  0.0000  0.0000
  o =  0.0457  v =  0.0000  0.0000  0.0000  0.0000  0.0000 -0.0334 -0.6898  0.0005  0.7232  0.0127      0.0000  0.0000  0.0000  0.0000  0.0000  0.0000  0.0000  0.0000  0.0000  0.0000
  o =  0.4067  v = -0.0001  0.0096 -0.0077 -0.0095  0.9999  0.0000  0.0000  0.0000  0.0000  0.0000      0.0000  0.0000  0.0000  0.0000  0.0000  0.0000  0.0000  0.0000  0.0000  0.0000
  o =  0.4067  v = -0.0110  0.0054 -0.9999  0.0056 -0.0077  0.0000  0.0000  0.0000  0.0000  0.0000      0.0000  0.0000  0.0000  0.0000  0.0000  0.0000  0.0000  0.0000  0.0000  0.0000
  o =  0.4138  v =  0.0000  0.0000  0.0000  0.0000  0.0000  0.0104 -0.0052  0.9999 -0.0052 -0.0000      0.0000  0.0000  0.0000  0.0000  0.0000  0.0000  0.0000  0.0000  0.0000  0.0000
  o =  0.4138  v =  0.0000  0.0000  0.0000  0.0000  0.0000  0.0000  0.0090  0.0000 -0.0090  0.9999      0.0000  0.0000  0.0000  0.0000  0.0000  0.0000  0.0000  0.0000  0.0000  0.0000
  o =  0.9341  v =  0.6221 -0.7689 -0.0103  0.1469  0.0088  0.0000  0.0000  0.0000  0.0000  0.0000      0.0000  0.0000  0.0000  0.0000  0.0000  0.0000  0.0000  0.0000  0.0000  0.0000
[...]
  0.000   0.000   0.000  -0.001   0.000  -0.000  -0.001  -0.000  -0.000  -0.000   0.000  -0.000  -0.000   0.000   0.000  -0.000
 -0.000  -0.000  -0.000  -0.000   0.001   0.000   0.000   0.000   0.000   0.000  -0.000  -0.000  -0.000  -0.000  -0.000   0.000
  0.000   0.000   0.000   0.000  -0.000   0.000   0.000  -0.000   0.000   0.000   0.000  -0.000  -0.000   0.000  -0.000  -0.000
  0.000   0.000   0.000   0.000  -0.001  -0.000  -0.000  -0.001   0.000  -0.000  -0.000  -0.000   0.000  -0.000   0.000   0.000
  0.000   0.000  -0.000   0.000   0.000  -0.001   0.000   0.000   0.000   0.000  -0.000   0.000  -0.000  -0.000   0.000   0.000
  0.000  -0.002   0.000   0.000   0.000   0.000   0.000   0.000   0.000   0.000   0.000   0.000  -0.000  -0.000  -0.000  -0.000
  0.000   0.000  -0.000   0.000   0.000  -0.001   0.000  -0.000   0.000   0.000   0.000   0.000  -0.000   0.000  -0.000  -0.000
 -0.000  -0.000  -0.000   0.000  -0.000  -0.000   0.001  -0.000  -0.000  -0.000  -0.000  -0.000   0.000  -0.000   0.000   0.000
  0.000   0.000   0.000   0.000  -0.000  -0.000   0.000  -0.001   0.000   0.000   0.000   0.000   0.000   0.000   0.000  -0.000
 -0.000  -0.000  -0.000   0.000   0.000  -0.000   0.000   0.000   0.000  -0.000  -0.000   0.000   0.000   0.000   0.000   0.000
 -0.000  -0.000  -0.000  -0.000   0.000  -0.000  -0.000   0.001  -0.000  -0.000   0.000  -0.000  -0.000   0.000  -0.000  -0.000


------------------------ aborting loop because EDIFF is reached ----------------------------------------


 


 total charge     
 
# of ion       s       p       d       f       tot
--------------------------------------------------
    1        1.998   5.696   0.475   0.183   8.352
    2        1.998   5.696   0.475   0.183   8.352
    3        1.998   5.695   0.475   0.183   8.352
    4        1.998   5.695   0.476   0.183   8.352
    5        1.998   5.695   0.476   0.183   8.352
    6        1.999   5.695   0.475   0.183   8.353
    7        0.287   0.415   4.937   0.000   5.639
    8        0.340   0.535   4.866   0.000   5.741
    9        0.333   0.522   4.871   0.000   5.727
   10        0.287   0.415   4.937   0.000   5.639
   11        0.340   0.535   4.866   0.000   5.741
   12        0.383   0.549   8.321   0.000   9.252
   13        1.559   3.506   0.000   0.000   5.065
   14        1.565   3.486   0.000   0.000   5.051
   15        1.564   3.496   0.000   0.000   5.061
   16        1.564   3.496   0.000   0.000   5.061
   17        1.565   3.486   0.000   0.000   5.051
   18        1.559   3.506   0.000   0.000   5.065
   19        1.559   3.449   0.000   0.000   5.008
   20        1.564   3.449   0.000   0.000   5.013
   21        1.563   3.449   0.000   0.000   5.012
   22        1.563   3.449   0.000   0.000   5.012
   23        1.564   3.448   0.000   0.000   5.012
   24        1.559   3.449   0.000   0.000   5.008
   25        1.559   3.422   0.000   0.000   4.981
   26        1.563   3.431   0.000   0.000   4.995
   27        1.562   3.427   0.000   0.000   4.989
   28        1.562   3.427   0.000   0.000   4.989
   29        1.563   3.431   0.000   0.000   4.995
   30        1.559   3.422   0.000   0.000   4.981
--------------------------------------------------
tot         42.079  99.371  35.650   1.100 178.200

 


 magnetization (x)
 
# of ion       s       p       d       f       tot
--------------------------------------------------
    1        0.001   0.001   0.012   0.007   0.022
    2        0.001   0.001   0.012   0.007   0.022
    3        0.001   0.001   0.011   0.007   0.019
    4        0.001   0.001   0.008   0.005   0.014
    5        0.001   0.001   0.008   0.005   0.014
    6        0.001   0.001   0.011   0.007   0.019
    7        0.023   0.021   4.056   0.000   4.100
    8        0.025   0.037   3.498   0.000   3.560
    9        0.023   0.032   3.588   0.000   3.644
   10        0.023   0.021   4.057   0.000   4.101
   11        0.025   0.037   3.498   0.000   3.560
   12        0.006  -0.001   1.713   0.000   1.717
   13        0.006   0.010   0.000   0.000   0.016
   14        0.007  -0.044   0.000   0.000  -0.036
   15        0.008  -0.023   0.000   0.000  -0.016
   16        0.008  -0.023   0.000   0.000  -0.016
   17        0.007  -0.043   0.000   0.000  -0.036
   18        0.006   0.010   0.000   0.000   0.016
   19        0.005   0.003   0.000   0.000   0.008
   20        0.005  -0.041   0.000   0.000  -0.036
   21        0.005  -0.028   0.000   0.000  -0.023
   22        0.005  -0.028   0.000   0.000  -0.023
   23        0.005  -0.041   0.000   0.000  -0.036
   24        0.005   0.003   0.000   0.000   0.008
   25        0.005  -0.004   0.000   0.000   0.000
   26        0.004  -0.041   0.000   0.000  -0.037
   27        0.004  -0.033   0.000   0.000  -0.029
   28        0.004  -0.033   0.000   0.000  -0.029
   29        0.004  -0.041   0.000   0.000  -0.037
   30        0.005  -0.004   0.000   0.000   0.000
--------------------------------------------------
tot          0.226  -0.249  20.474   0.037  20.488

 
    CHARGE:  cpu time    0.1043: real time    0.1045
    FORLOC:  cpu time    0.0136: real time    0.0136
    FORNL :  cpu time    0.5515: real time    0.5560
    STRESS:  cpu time    1.6627: real time    1.6698
    FORCOR:  cpu time    0.1125: real time    0.1132
    FORHAR:  cpu time    0.0235: real time    0.0236
    MIXING:  cpu time    0.0064: real time    0.0064
    OFIELD:  cpu time    0.0001: real time    0.0002

  FORCE on cell =-STRESS in cart. coord.  units (eV):
  Direction    XX          YY          ZZ          XY          YZ          ZX
  --------------------------------------------------------------------------------------
  Alpha Z   963.94031   963.94031   963.94031
  Ewald   -4857.58969 -4857.58966 -4857.58966   -30.03162   -30.03159   -30.03162
  Hartree  1016.52493  1016.52494  1016.52494   -30.39814   -30.39814   -30.39814
  E(xc)   -1005.45706 -1005.45709 -1005.45709     0.00571     0.00574     0.00571
  Local    -527.38393  -527.38454  -527.38454    60.48673    60.48729    60.48673
  n-local   386.86454   388.53003   391.67184    -1.50046     1.05658     0.13805
  augment   198.51127   198.51173   198.51173    -0.00618    -0.00665    -0.00618
  Kinetic  3837.76661  3828.03457  3803.55081   -11.95314     9.04921     3.16382
  Fock        0.00000     0.00000     0.00000     0.00000     0.00000     0.00000
  -------------------------------------------------------------------------------------
  Total       0.68520     0.68520     0.68520     0.04127     0.04127     0.04127
  in kB       3.03803     3.03803     3.03803     0.18300     0.18300     0.18300
  external pressure =        3.04 kB  Pullay stress =        0.00 kB


 VOLUME and BASIS-vectors are now :
 -----------------------------------------------------------------------------
  energy-cutoff  :      520.00
  volume of cell :      361.36
      direct lattice vectors                 reciprocal lattice vectors
     3.919128350  0.000000000 -3.919128350     0.085052926  0.085052926 -0.170105852
    -3.919128350  3.919128350  0.000000000    -0.085052926  0.170105852 -0.085052926
     7.842214855  7.842214855  7.842214855     0.042504999  0.042504999  0.042504999

  length of vectors
     5.542484466  5.542484466 13.583114573     0.208336270  0.208336270  0.073620818


 FORCES acting on ions
    electron-ion (+dipol)            ewald-force                    non-local-force                 convergence-correction
 -----------------------------------------------------------------------------------------------
   0.160E+02 0.160E+02 0.160E+02   -.161E+02 -.161E+02 -.161E+02   -.284E-02 -.284E-02 -.284E-02   -.214E-01 -.214E-01 -.214E-01
   -.160E+02 -.160E+02 -.160E+02   0.161E+02 0.161E+02 0.161E+02   0.284E-02 0.284E-02 0.284E-02   0.214E-01 0.214E-01 0.214E-01
   -.709E+02 -.709E+02 -.709E+02   0.704E+02 0.704E+02 0.704E+02   0.419E+00 0.419E+00 0.419E+00   0.415E-01 0.415E-01 0.415E-01
   -.475E+02 -.475E+02 -.475E+02   0.471E+02 0.471E+02 0.471E+02   0.338E+00 0.338E+00 0.338E+00   0.177E-01 0.177E-01 0.177E-01
   0.475E+02 0.475E+02 0.475E+02   -.471E+02 -.471E+02 -.471E+02   -.338E+00 -.338E+00 -.338E+00   -.177E-01 -.177E-01 -.177E-01
   0.709E+02 0.709E+02 0.709E+02   -.704E+02 -.704E+02 -.704E+02   -.419E+00 -.419E+00 -.419E+00   -.415E-01 -.415E-01 -.415E-01
   -.167E+02 -.167E+02 -.167E+02   0.169E+02 0.169E+02 0.169E+02   -.229E+00 -.229E+00 -.229E+00   0.203E-01 0.203E-01 0.203E-01
   -.314E+02 -.314E+02 -.314E+02   0.313E+02 0.313E+02 0.313E+02   0.200E+00 0.200E+00 0.200E+00   0.988E-02 0.988E-02 0.988E-02
   0.477E-12 0.490E-12 0.491E-12   0.355E-13 0.462E-13 -.462E-13   0.110E-19 -.889E-20 -.424E-20   -.941E-13 -.107E-12 -.950E-13
   0.167E+02 0.167E+02 0.167E+02   -.169E+02 -.169E+02 -.169E+02   0.229E+00 0.229E+00 0.229E+00   -.203E-01 -.203E-01 -.203E-01
   0.314E+02 0.314E+02 0.314E+02   -.313E+02 -.313E+02 -.313E+02   -.200E+00 -.200E+00 -.200E+00   -.988E-02 -.988E-02 -.988E-02
   0.684E-12 0.710E-12 0.704E-12   -.284E-13 -.128E-12 -.497E-13   -.169E-20 0.762E-20 0.339E-20   0.300E-12 0.315E-12 0.307E-12
   -.164E+02 -.164E+02 -.550E+02   0.165E+02 0.165E+02 0.511E+02   -.175E+00 -.175E+00 0.380E+01   0.444E-02 0.444E-02 0.443E-01
   -.230E+02 -.230E+02 -.493E+02   0.230E+02 0.230E+02 0.518E+02   0.472E-01 0.472E-01 -.256E+01   0.158E-01 0.158E-01 0.508E-01
   -.465E+01 -.465E+01 0.821E+01   0.441E+01 0.441E+01 -.102E+02   0.251E+00 0.251E+00 0.194E+01   0.963E-02 0.963E-02 -.119E-01
   0.465E+01 0.465E+01 -.821E+01   -.441E+01 -.441E+01 0.102E+02   -.251E+00 -.251E+00 -.194E+01   -.963E-02 -.963E-02 0.119E-01
   0.230E+02 0.230E+02 0.493E+02   -.230E+02 -.230E+02 -.518E+02   -.472E-01 -.472E-01 0.256E+01   -.158E-01 -.158E-01 -.508E-01
   0.164E+02 0.164E+02 0.550E+02   -.165E+02 -.165E+02 -.511E+02   0.175E+00 0.175E+00 -.380E+01   -.444E-02 -.444E-02 -.443E-01
   -.164E+02 -.550E+02 -.164E+02   0.165E+02 0.511E+02 0.165E+02   -.175E+00 0.380E+01 -.175E+00   0.444E-02 0.443E-01 0.444E-02
   -.230E+02 -.493E+02 -.230E+02   0.230E+02 0.518E+02 0.230E+02   0.472E-01 -.256E+01 0.472E-01   0.158E-01 0.508E-01 0.158E-01
   -.465E+01 0.821E+01 -.465E+01   0.441E+01 -.102E+02 0.441E+01   0.251E+00 0.194E+01 0.251E+00   0.963E-02 -.119E-01 0.963E-02
   0.465E+01 -.821E+01 0.465E+01   -.441E+01 0.102E+02 -.441E+01   -.251E+00 -.194E+01 -.251E+00   -.963E-02 0.119E-01 -.963E-02
   0.230E+02 0.493E+02 0.230E+02   -.230E+02 -.518E+02 -.230E+02   -.472E-01 0.256E+01 -.472E-01   -.158E-01 -.508E-01 -.158E-01
   0.164E+02 0.550E+02 0.164E+02   -.165E+02 -.511E+02 -.165E+02   0.175E+00 -.380E+01 0.175E+00   -.444E-02 -.443E-01 -.444E-02
   -.550E+02 -.164E+02 -.164E+02   0.511E+02 0.165E+02 0.165E+02   0.380E+01 -.175E+00 -.175E+00   0.443E-01 0.444E-02 0.444E-02
   -.493E+02 -.230E+02 -.230E+02   0.518E+02 0.230E+02 0.230E+02   -.256E+01 0.472E-01 0.472E-01   0.508E-01 0.158E-01 0.158E-01
   0.821E+01 -.465E+01 -.465E+01   -.102E+02 0.441E+01 0.441E+01   0.194E+01 0.251E+00 0.251E+00   -.119E-01 0.963E-02 0.963E-02
   -.821E+01 0.465E+01 0.465E+01   0.102E+02 -.441E+01 -.441E+01   -.194E+01 -.251E+00 -.251E+00   0.119E-01 -.963E-02 -.963E-02
   0.493E+02 0.230E+02 0.230E+02   -.518E+02 -.230E+02 -.230E+02   0.256E+01 -.472E-01 -.472E-01   -.508E-01 -.158E-01 -.158E-01
   0.550E+02 0.164E+02 0.164E+02   -.511E+02 -.165E+02 -.165E+02   -.380E+01 0.175E+00 0.175E+00   -.443E-01 -.444E-02 -.444E-02
 -----------------------------------------------------------------------------------------------
   -.152E-10 0.143E-10 -.623E-11   -.178E-12 -.114E-12 -.185E-12   -.444E-15 0.472E-15 0.278E-16   0.146E-12 0.381E-12 0.218E-12
 
 
 POSITION                                       TOTAL-FORCE (eV/Angst)
 -----------------------------------------------------------------------------------
      7.84505      7.84505      3.92593        -0.030532     -0.030532     -0.030532
      3.91827      7.83740      3.91827         0.030532      0.030532      0.030532
      3.86973      3.86973      3.86973        -0.020581     -0.020581     -0.020581
      3.87837      3.87836     -0.04076        -0.016165     -0.016165     -0.016165
      0.04274      3.96187      0.04274         0.016165      0.016165      0.016165
      0.05138      0.05138      0.05138         0.020581      0.020581      0.020581
      5.87627      5.87627      1.95714        -0.001302     -0.001302     -0.001302
      1.95453      5.87365      1.95453         0.093973      0.093973      0.093973
      5.88166      5.88166      5.88166         0.000000      0.000000      0.000000
      5.88705      9.80618      5.88705         0.001302      0.001302      0.001302
      1.96658      1.96658     -1.95255        -0.093973     -0.093973     -0.093973
      1.96055      1.96055      1.96055         0.000000      0.000000      0.000000
      1.96524      5.88436      0.02434        -0.038894     -0.038894     -0.083291
      1.96491      5.88404      3.88266        -0.031445     -0.031445      0.008042
      5.88368      5.88368      3.94759         0.015241      0.015241     -0.033112
      5.87964      9.79877      3.89660        -0.015241     -0.015241      0.033112
      1.95620      1.95620     -3.88068         0.031445      0.031445     -0.008042
      1.95587      1.95587     -0.02236         0.038894      0.038894      0.083291
      1.96524      3.94347      1.96524        -0.038894     -0.083291     -0.038894
      1.96491      7.80179      1.96491        -0.031445      0.008042     -0.031445
      5.88368      7.86672      1.96455         0.015241     -0.033112      0.015241
      5.87964      7.81573      5.87964        -0.015241      0.033112     -0.015241
      1.95620      0.03845     -1.96293         0.031445     -0.008042      0.031445
      1.95587      3.89676     -1.96326         0.038894      0.083291      0.038894
      0.02434      5.88436      1.96524        -0.083291     -0.038894     -0.038894
      3.88266      5.88404      1.96491         0.008042     -0.031445     -0.031445
      7.86672      5.88368      1.96455        -0.033112      0.015241      0.015241
      3.89660      9.79877      5.87964         0.033112     -0.015241     -0.015241
      0.03845      1.95620     -1.96293        -0.008042      0.031445      0.031445
      3.89676      1.95587     -1.96326         0.083291      0.038894      0.038894
 -----------------------------------------------------------------------------------
    total drift:                               -0.000000      0.000000     -0.000000


--------------------------------------------------------------------------------------------------------



  FREE ENERGIE OF THE ION-ELECTRON SYSTEM (eV)
  ---------------------------------------------------
  free  energy   TOTEN  =      -232.31846239 eV

  energy  without entropy=     -232.31846239  energy(sigma->0) =     -232.31846239
 


--------------------------------------------------------------------------------------------------------


    POTLOK:  cpu time    0.1150: real time    0.1153


--------------------------------------------------------------------------------------------------------


     LOOP+:  cpu time   47.4033: real time   47.7140
    4ORBIT:  cpu time    0.0000: real time    0.0000
 


 total charge     
 
# of ion       s       p       d       f       tot
--------------------------------------------------
    1        1.998   5.696   0.475   0.183   8.352
    2        1.998   5.696   0.475   0.183   8.352
    3        1.998   5.695   0.475   0.183   8.352
    4        1.998   5.695   0.476   0.183   8.352
    5        1.998   5.695   0.476   0.183   8.352
    6        1.999   5.695   0.475   0.183   8.353
    7        0.287   0.415   4.937   0.000   5.639
    8        0.340   0.535   4.866   0.000   5.741
    9        0.333   0.522   4.871   0.000   5.727
   10        0.287   0.415   4.937   0.000   5.639
   11        0.340   0.535   4.866   0.000   5.741
   12        0.383   0.549   8.321   0.000   9.252
   13        1.559   3.506   0.000   0.000   5.065
   14        1.565   3.486   0.000   0.000   5.051
   15        1.564   3.496   0.000   0.000   5.061
   16        1.564   3.496   0.000   0.000   5.061
   17        1.565   3.486   0.000   0.000   5.051
   18        1.559   3.506   0.000   0.000   5.065
   19        1.559   3.449   0.000   0.000   5.008
   20        1.564   3.449   0.000   0.000   5.013
   21        1.563   3.449   0.000   0.000   5.012
   22        1.563   3.449   0.000   0.000   5.012
   23        1.564   3.448   0.000   0.000   5.012
   24        1.559   3.449   0.000   0.000   5.008
   25        1.559   3.422   0.000   0.000   4.981
   26        1.563   3.431   0.000   0.000   4.995
   27        1.562   3.427   0.000   0.000   4.989
   28        1.562   3.427   0.000   0.000   4.989
   29        1.563   3.431   0.000   0.000   4.995
   30        1.559   3.422   0.000   0.000   4.981
--------------------------------------------------
tot         42.079  99.371  35.650   1.100 178.200

 


 magnetization (x)
 
# of ion       s       p       d       f       tot
--------------------------------------------------
    1        0.001   0.001   0.012   0.007   0.022
    2        0.001   0.001   0.012   0.007   0.022
    3        0.001   0.001   0.011   0.007   0.019
    4        0.001   0.001   0.008   0.005   0.014
    5        0.001   0.001   0.008   0.005   0.014
    6        0.001   0.001   0.011   0.007   0.019
    7        0.023   0.021   4.056   0.000   4.100
    8        0.025   0.037   3.498   0.000   3.560
    9        0.023   0.032   3.588   0.000   3.644
   10        0.023   0.021   4.057   0.000   4.101
   11        0.025   0.037   3.498   0.000   3.560
   12        0.006  -0.001   1.713   0.000   1.717
   13        0.006   0.010   0.000   0.000   0.016
   14        0.007  -0.044   0.000   0.000  -0.036
   15        0.008  -0.023   0.000   0.000  -0.016
   16        0.008  -0.023   0.000   0.000  -0.016
   17        0.007  -0.043   0.000   0.000  -0.036
   18        0.006   0.010   0.000   0.000   0.016
   19        0.005   0.003   0.000   0.000   0.008
   20        0.005  -0.041   0.000   0.000  -0.036
   21        0.005  -0.028   0.000   0.000  -0.023
   22        0.005  -0.028   0.000   0.000  -0.023
   23        0.005  -0.041   0.000   0.000  -0.036
   24        0.005   0.003   0.000   0.000   0.008
   25        0.005  -0.004   0.000   0.000   0.000
   26        0.004  -0.041   0.000   0.000  -0.037
   27        0.004  -0.033   0.000   0.000  -0.029
   28        0.004  -0.033   0.000   0.000  -0.029
   29        0.004  -0.041   0.000   0.000  -0.037
   30        0.005  -0.004   0.000   0.000   0.000
--------------------------------------------------
tot          0.226  -0.249  20.474   0.037  20.488

 
 BZINTS: Fermi energy:  8.041759;219.000000 electrons
         Band energy:-417.798602;  BLOECHL correction:  0.000000

 total amount of memory used by VASP MPI-rank0    62342. kBytes
=======================================================================

   base      :      30000. kBytes
   nonlr-proj:       8241. kBytes
   fftplans  :       3626. kBytes
   grid      :      10597. kBytes
   one-center:        294. kBytes
   wavefun   :       9584. kBytes
 
  
  
 General timing and accounting informations for this job:
 ========================================================
  
                  Total CPU time used (sec):       54.129
                            User time (sec):       51.426
                          System time (sec):        2.703
                         Elapsed time (sec):       54.928
  
                   Maximum memory used (kb):      104444.
                   Average memory used (kb):           0.
  
                          Minor page faults:        41776
                          Major page faults:            0
                 Voluntary context switches:         1050
