       N       E                     dE             d eps       ncg     rms          rms(c)
DAV:   1     0.360279184354E+04    0.36028E+04   -0.80470E+04  6242   0.251E+03
DAV:   2     0.125058742224E+04   -0.23522E+04   -0.21255E+04  6464   0.648E+02
DAV:   3     0.268913557348E+03   -0.98167E+03   -0.87990E+03  6488   0.327E+02
DAV:   4    -0.151864175173E+03   -0.42078E+03   -0.39914E+03  9284   0.179E+02
DAV:   5    -0.243433780207E+03   -0.91570E+02   -0.88565E+02 10888   0.978E+01    0.816E+01
RMM:   6    -0.215961909796E+03    0.27472E+02   -0.71876E+02  9939   0.110E+02    0.103E+02
RMM:   7    -0.216114003339E+03   -0.15209E+00   -0.15175E+02 10087   0.359E+01    0.451E+01
RMM:   8    -0.210810374385E+03    0.53036E+01   -0.46217E+01  8556   0.336E+01    0.181E+01
RMM:   9    -0.213587546335E+03   -0.27772E+01   -0.25916E+01  9620   0.159E+01    0.119E+01
RMM:  10    -0.213752101492E+03   -0.16456E+00   -0.48107E+00 10587   0.551E+00    0.702E+00
RMM:  11    -0.213855232486E+03   -0.10313E+00   -0.28779E+00  9724   0.594E+00    0.391E+00
RMM:  12    -0.213929564623E+03   -0.74332E-01   -0.74686E-01 10141   0.291E+00    0.217E+00
RMM:  13    -0.213985792912E+03   -0.56228E-01   -0.35339E-01 10299   0.153E+00    0.106E+00
RMM:  14    -0.214001940661E+03   -0.16148E-01   -0.13692E-01  9841   0.107E+00    0.554E-01
RMM:  15    -0.214008954728E+03   -0.70141E-02   -0.68271E-02  9223   0.621E-01    0.284E-01
RMM:  16    -0.214011990044E+03   -0.30353E-02   -0.35799E-02  7482   0.509E-01    0.158E-01
RMM:  17    -0.214014344782E+03   -0.23547E-02   -0.23739E-02  6745   0.416E-01    0.851E-02
RMM:  18    -0.214015649564E+03   -0.13048E-02   -0.14495E-02  6045   0.370E-01    0.624E-02
RMM:  19    -0.214016646763E+03   -0.99720E-03   -0.10810E-02  5847   0.306E-01    0.500E-02
RMM:  20    -0.214017375864E+03   -0.72910E-03   -0.76010E-03  5747   0.306E-01
   1 F= -.21401738E+03 E0= -.21401738E+03  d E =0.000000E+00  mag=    12.0004
