 vasp.5.4.4.18Apr17-6-g9f103f2a35 (build Oct 03 2018 13:58:34) complex          
  
 executed on             LinuxIFC date 2019.06.04  00:32:46
 running on   40 total cores
 distrk:  each k-point on   20 cores,    2 groups
 distr:  one band on NCORES_PER_BAND=  10 cores,    2 groups


--------------------------------------------------------------------------------------------------------


 INCAR:
 POTCAR:    PAW_PBE La 06Sep2000                  
 POTCAR:    PAW_PBE Mn 06Sep2000                  
 POTCAR:    PAW_PBE Ni 02Aug2007                  
 POTCAR:    PAW_PBE O 08Apr2002                   

 ----------------------------------------------------------------------------- 
|                                                                             |
|           W    W    AA    RRRRR   N    N  II  N    N   GGGG   !!!           |
|           W    W   A  A   R    R  NN   N  II  NN   N  G    G  !!!           |
|           W    W  A    A  R    R  N N  N  II  N N  N  G       !!!           |
|           W WW W  AAAAAA  RRRRR   N  N N  II  N  N N  G  GGG   !            |
|           WW  WW  A    A  R   R   N   NN  II  N   NN  G    G                |
|           W    W  A    A  R    R  N    N  II  N    N   GGGG   !!!           |
|                                                                             |
|      You have enabled k-point parallelism (KPAR>1).                         |
|      This developmental code was originally  written by Paul Kent at ORNL,  |
|      and carefully double checked in Vienna.                                |
|      GW as well as linear response parallelism added by Martijn Marsman     |
|      and Georg Kresse.                                                      |
|      Carefully verify results versus KPAR=1.                                |
|      Report problems to Paul Kent and Vienna.                               |
|                                                                             |
 ----------------------------------------------------------------------------- 

 POTCAR:    PAW_PBE La 06Sep2000                  
   VRHFIN =La : [core=Kr4d]                                                     
   LEXCH  = PE                                                                  
   EATOM  =   865.9763 eV,   63.6475 Ry                                         
                                                                                
   TITEL  = PAW_PBE La 06Sep2000                                                
   LULTRA =        F    use ultrasoft PP ?                                      
   IUNSCR =        1    unscreen: 0-lin 1-nonlin 2-no                           
   RPACOR =    2.300    partial core radius                                     
   POMASS =  138.900; ZVAL   =   11.000    mass and valenz                      
   RCORE  =    2.800    outmost cutoff radius                                   
   RWIGS  =    2.900; RWIGS  =    1.535    wigner-seitz radius (au A)           
   ENMAX  =  219.292; ENMIN  =  164.469 eV                                      
   RCLOC  =    1.601    cutoff for local pot                                    
   LCOR   =        T    correct aug charges                                     
   LPAW   =        T    paw PP                                                  
   EAUG   =  583.575                                                            
   DEXC   =    0.000                                                            
   RMAX   =    2.853    core radius for proj-oper                               
   RAUG   =    1.300    factor for augmentation sphere                          
   RDEP   =    2.802    radius for radial grids                                 
   RDEPT  =    2.156    core radius for aug-charge                              
                                                                                
   Atomic configuration                                                         
   14 entries                                                                   
     n  l   j            E        occ.                                          
     1  0  0.50    -38741.0879   2.0000                                         
     2  0  0.50     -6166.6801   2.0000                                         
     2  1  1.50     -5526.1593   6.0000                                         
     3  0  0.50     -1319.0200   2.0000                                         
     3  1  1.50     -1114.5963   6.0000                                         
     3  2  2.50      -821.1793  10.0000                                         
     4  0  0.50      -266.3851   2.0000                                         
     4  1  1.50      -199.9276   6.0000                                         
     4  2  2.50      -103.8239  10.0000                                         
     5  0  0.50       -38.9172   2.0000                                         
     6  0  0.50        -3.6792   2.0000                                         
     5  1  1.50       -22.3948   6.0000                                         
     5  2  2.50        -3.0911   0.9999                                         
     4  3  2.50        -4.3603   0.0001                                         
   Description                                                                  
     l       E           TYP  RCUT    TYP  RCUT                                 
     0    -38.9171645     23  2.800                                             
     0     -3.6792381     23  2.800                                             
     1    -22.3948300     23  2.500                                             
     1     27.2116520     23  2.500                                             
     2     -3.0910934     23  2.500                                             
     2      1.0119135     23  2.500                                             
     3     -4.3602911     23  2.800                                             
     3     -5.7208737     23  2.800                                             
  local pseudopotential read in
  partial core-charges read in
  partial kinetic energy density read in
  atomic valenz-charges read in
  non local Contribution for L=           0  read in
    real space projection operators read in
  non local Contribution for L=           0  read in
    real space projection operators read in
  non local Contribution for L=           1  read in
    real space projection operators read in
  non local Contribution for L=           1  read in
    real space projection operators read in
  non local Contribution for L=           2  read in
    real space projection operators read in
  non local Contribution for L=           2  read in
    real space projection operators read in
  non local Contribution for L=           3  read in
    real space projection operators read in
  non local Contribution for L=           3  read in
    real space projection operators read in
    PAW grid and wavefunctions read in
 
   number of l-projection  operators is LMAX  =           8
   number of lm-projection operators is LMMAX =          32
 
 POTCAR:    PAW_PBE Mn 06Sep2000                  
   VRHFIN =Mn: d6 s1                                                            
   LEXCH  = PE                                                                  
   EATOM  =   416.7541 eV,   30.6306 Ry                                         
                                                                                
   TITEL  = PAW_PBE Mn 06Sep2000                                                
   LULTRA =        F    use ultrasoft PP ?                                      
   IUNSCR =        1    unscreen: 0-lin 1-nonlin 2-no                           
   RPACOR =    2.000    partial core radius                                     
   POMASS =   54.938; ZVAL   =    7.000    mass and valenz                      
   RCORE  =    2.300    outmost cutoff radius                                   
   RWIGS  =    2.500; RWIGS  =    1.323    wigner-seitz radius (au A)           
   ENMAX  =  269.864; ENMIN  =  202.398 eV                                      
   RCLOC  =    1.725    cutoff for local pot                                    
   LCOR   =        T    correct aug charges                                     
   LPAW   =        T    paw PP                                                  
   EAUG   =  500.711                                                            
   DEXC   =    0.000                                                            
   RMAX   =    2.343    core radius for proj-oper                               
   RAUG   =    1.300    factor for augmentation sphere                          
   RDEP   =    2.338    radius for radial grids                                 
   RDEPT  =    1.911    core radius for aug-charge                              
                                                                                
   Atomic configuration                                                         
    9 entries                                                                   
     n  l   j            E        occ.                                          
     1  0  0.50     -6424.8288   2.0000                                         
     2  0  0.50      -739.1154   2.0000                                         
     2  1  1.50      -625.3949   6.0000                                         
     3  0  0.50       -81.6100   2.0000                                         
     3  1  1.50       -50.4667   6.0000                                         
     3  2  2.50        -3.3745   6.0000                                         
     4  0  0.50        -4.1331   1.0000                                         
     4  1  0.50        -4.0817   0.0000                                         
     4  3  2.50        -1.3606   0.0000                                         
   Description                                                                  
     l       E           TYP  RCUT    TYP  RCUT                                 
     2     -3.3744664     23  2.300                                             
     2     -4.7350490     23  2.300                                             
     0     -4.1331408     23  2.300                                             
     0      7.6656614     23  2.300                                             
     1     -2.7211652     23  2.300                                             
     1     20.4087390     23  2.300                                             
  local pseudopotential read in
  partial core-charges read in
  partial kinetic energy density read in
  atomic valenz-charges read in
  non local Contribution for L=           2  read in
    real space projection operators read in
  non local Contribution for L=           2  read in
    real space projection operators read in
  non local Contribution for L=           0  read in
    real space projection operators read in
  non local Contribution for L=           0  read in
    real space projection operators read in
  non local Contribution for L=           1  read in
    real space projection operators read in
  non local Contribution for L=           1  read in
    real space projection operators read in
    PAW grid and wavefunctions read in
 
   number of l-projection  operators is LMAX  =           6
   number of lm-projection operators is LMMAX =          18
 
 POTCAR:    PAW_PBE Ni 02Aug2007                  
   VRHFIN =Ni:                                                                  
   LEXCH  = PE                                                                  
   EATOM  =  1077.6739 eV,   79.2068 Ry                                         
                                                                                
   TITEL  = PAW_PBE Ni 02Aug2007                                                
   LULTRA =        F    use ultrasoft PP ?                                      
   IUNSCR =        1    unscreen: 0-lin 1-nonlin 2-no                           
   RPACOR =    2.000    partial core radius                                     
   POMASS =   58.690; ZVAL   =   10.000    mass and valenz                      
   RCORE  =    2.300    outmost cutoff radius                                   
   RWIGS  =    2.430; RWIGS  =    1.286    wigner-seitz radius (au A)           
   ENMAX  =  269.532; ENMIN  =  202.149 eV                                      
   RCLOC  =    1.201    cutoff for local pot                                    
   LCOR   =        T    correct aug charges                                     
   LPAW   =        T    paw PP                                                  
   EAUG   =  544.565                                                            
   DEXC   =    0.000                                                            
   RMAX   =    2.357    core radius for proj-oper                               
   RAUG   =    1.300    factor for augmentation sphere                          
   RDEP   =    2.390    radius for radial grids                                 
   RDEPT  =    1.838    core radius for aug-charge                              
                                                                                
   Atomic configuration                                                         
    9 entries                                                                   
     n  l   j            E        occ.                                          
     1  0  0.50     -8206.4253   2.0000                                         
     2  0  0.50      -976.1748   2.0000                                         
     2  1  1.50      -839.0571   6.0000                                         
     3  0  0.50      -105.9991   2.0000                                         
     3  1  1.50       -66.4603   6.0000                                         
     3  2  2.50        -4.6458   9.0000                                         
     4  0  0.50        -4.4926   1.0000                                         
     4  1  1.50        -4.0817   0.0000                                         
     4  3  2.50        -1.3606   0.0000                                         
   Description                                                                  
     l       E           TYP  RCUT    TYP  RCUT                                 
     2     -4.6457903     23  2.300                                             
     2     -6.0063729     23  2.300                                             
     0     -4.4925590     23  2.300                                             
     0      5.0102601     23  2.300                                             
     1     -2.7211652     23  2.300                                             
     1     16.5183231     23  2.300                                             
  local pseudopotential read in
  partial core-charges read in
  partial kinetic energy density read in
  atomic valenz-charges read in
  non local Contribution for L=           2  read in
    real space projection operators read in
  non local Contribution for L=           2  read in
    real space projection operators read in
  non local Contribution for L=           0  read in
    real space projection operators read in
  non local Contribution for L=           0  read in
    real space projection operators read in
  non local Contribution for L=           1  read in
    real space projection operators read in
  non local Contribution for L=           1  read in
    real space projection operators read in
    PAW grid and wavefunctions read in
 
   number of l-projection  operators is LMAX  =           6
   number of lm-projection operators is LMMAX =          18
 
 POTCAR:    PAW_PBE O 08Apr2002                   
   VRHFIN =O: s2p4                                                              
   LEXCH  = PE                                                                  
   EATOM  =   432.3788 eV,   31.7789 Ry                                         
                                                                                
   TITEL  = PAW_PBE O 08Apr2002                                                 
   LULTRA =        F    use ultrasoft PP ?                                      
   IUNSCR =        1    unscreen: 0-lin 1-nonlin 2-no                           
   RPACOR =    1.200    partial core radius                                     
   POMASS =   16.000; ZVAL   =    6.000    mass and valenz                      
   RCORE  =    1.520    outmost cutoff radius                                   
   RWIGS  =    1.550; RWIGS  =    0.820    wigner-seitz radius (au A)           
   ENMAX  =  400.000; ENMIN  =  300.000 eV                                      
   ICORE  =        2    local potential                                         
   LCOR   =        T    correct aug charges                                     
   LPAW   =        T    paw PP                                                  
   EAUG   =  605.392                                                            
   DEXC   =    0.000                                                            
   RMAX   =    1.553    core radius for proj-oper                               
   RAUG   =    1.300    factor for augmentation sphere                          
   RDEP   =    1.550    radius for radial grids                                 
   RDEPT  =    1.329    core radius for aug-charge                              
                                                                                
   Atomic configuration                                                         
    4 entries                                                                   
     n  l   j            E        occ.                                          
     1  0  0.50      -514.6923   2.0000                                         
     2  0  0.50       -23.9615   2.0000                                         
     2  1  0.50        -9.0305   4.0000                                         
     3  2  1.50        -9.5241   0.0000                                         
   Description                                                                  
     l       E           TYP  RCUT    TYP  RCUT                                 
     0    -23.9615318     23  1.200                                             
     0     -9.5240782     23  1.200                                             
     1     -9.0304911     23  1.520                                             
     1      8.1634956     23  1.520                                             
     2     -9.5240782      7  1.500                                             
  local pseudopotential read in
  partial core-charges read in
  partial kinetic energy density read in
  kinetic energy density of atom read in
  atomic valenz-charges read in
  non local Contribution for L=           0  read in
    real space projection operators read in
  non local Contribution for L=           0  read in
    real space projection operators read in
  non local Contribution for L=           1  read in
    real space projection operators read in
  non local Contribution for L=           1  read in
    real space projection operators read in
    PAW grid and wavefunctions read in
 
   number of l-projection  operators is LMAX  =           4
   number of lm-projection operators is LMMAX =           8
 
 Optimization of the real space projectors (new method)

 maximal supplied QI-value         = 13.42
 optimisation between [QCUT,QGAM] = [ 11.67, 23.35] = [ 38.16,152.62] Ry 
 Optimized for a Real-space Cutoff    1.63 Angstroem

   l    n(q)    QCUT    max X(q) W(low)/X(q) W(high)/X(q)  e(spline) 
   0     11    11.673    13.882    0.27E-04    0.79E-05    0.11E-06
   0     11    11.673    12.184    0.39E-04    0.13E-04    0.19E-06
   1     11    11.673     4.523    0.73E-05    0.76E-05    0.12E-06
   1     11    11.673     4.424    0.87E-05    0.13E-04    0.19E-06
   2     10    11.673    52.481    0.65E-04    0.36E-04    0.18E-06
   2     10    11.673    38.501    0.61E-04    0.33E-04    0.17E-06
   3     10    11.673    65.631    0.17E-03    0.14E-03    0.37E-06
   3     10    11.673    56.854    0.17E-03    0.14E-03    0.37E-06
 Optimization of the real space projectors (new method)

 maximal supplied QI-value         = 16.25
 optimisation between [QCUT,QGAM] = [ 11.54, 23.24] = [ 37.28,151.24] Ry 
 Optimized for a Real-space Cutoff    1.53 Angstroem

   l    n(q)    QCUT    max X(q) W(low)/X(q) W(high)/X(q)  e(spline) 
   2     10    11.539   110.144    0.12E-03    0.13E-03    0.25E-06
   2     10    11.539   103.200    0.12E-03    0.13E-03    0.25E-06
   0     11    11.539    68.437    0.46E-04    0.21E-04    0.32E-06
   0     11    11.539    33.971    0.37E-04    0.19E-04    0.29E-06
   1     10    11.539    17.065    0.51E-04    0.22E-04    0.13E-06
   1     10    11.539    12.540    0.41E-04    0.18E-04    0.11E-06
 Optimization of the real space projectors (new method)

 maximal supplied QI-value         = 16.25
 optimisation between [QCUT,QGAM] = [ 11.54, 23.24] = [ 37.28,151.24] Ry 
 Optimized for a Real-space Cutoff    1.45 Angstroem

   l    n(q)    QCUT    max X(q) W(low)/X(q) W(high)/X(q)  e(spline) 
   2      9    11.539    60.317    0.19E-03    0.47E-04    0.16E-06
   2      9    11.539    55.921    0.19E-03    0.48E-04    0.16E-06
   0     10    11.539    51.690    0.80E-04    0.50E-04    0.24E-06
   0     10    11.539    30.015    0.73E-04    0.45E-04    0.22E-06
   1     10    11.539    18.849    0.87E-04    0.16E-03    0.71E-07
   1     10    11.539    14.624    0.73E-04    0.13E-03    0.64E-07
 Optimization of the real space projectors (new method)

 maximal supplied QI-value         = 24.76
 optimisation between [QCUT,QGAM] = [ 11.64, 23.27] = [ 37.91,151.63] Ry 
 Optimized for a Real-space Cutoff    1.14 Angstroem

   l    n(q)    QCUT    max X(q) W(low)/X(q) W(high)/X(q)  e(spline) 
   0      8    11.635    20.381    0.10E-03    0.33E-03    0.24E-06
   0      8    11.635    15.268    0.11E-03    0.35E-03    0.26E-06
   1      7    11.635     5.964    0.24E-03    0.31E-03    0.30E-06
   1      7    11.635     5.382    0.22E-03    0.25E-03    0.26E-06
  PAW_PBE La 06Sep2000                  :
 energy of atom  1       EATOM= -865.9763
 kinetic energy error for atom=    0.0009 (will be added to EATOM!!)
  PAW_PBE Mn 06Sep2000                  :
 energy of atom  2       EATOM= -416.7541
 kinetic energy error for atom=    0.0024 (will be added to EATOM!!)
  PAW_PBE Ni 02Aug2007                  :
 energy of atom  3       EATOM=-1077.6739
 kinetic energy error for atom=    0.0030 (will be added to EATOM!!)
  PAW_PBE O 08Apr2002                   :
 energy of atom  4       EATOM= -432.3788
 kinetic energy error for atom=    0.0208 (will be added to EATOM!!)
 
 
 POSCAR: SCEL6_3_2_1_0_1_0/5                     
  positions in direct lattice
  velocities in cartesian coordinates
 exchange correlation table for  LEXCH =        8
   RHO(1)=    0.500       N(1)  =     2000
   RHO(2)=  100.500       N(2)  =     4000
 


--------------------------------------------------------------------------------------------------------


 ion  position               nearest neighbor table
   1  0.335  0.497  0.670-  27 2.71  17 2.71  21 2.71  23 2.73  23 2.73  30 2.73  14 2.73  13 2.74
                            29 2.74  16 2.76  26 2.76  19 2.76  10 3.32  11 3.34  11 3.34  12 3.34
   2  0.665  0.997  0.330-  28 2.71  18 2.71  24 2.71  22 2.73  22 2.73  25 2.73  15 2.73  16 2.74
                            26 2.74  13 2.76  29 2.76  20 2.76  12 3.32   9 3.34   9 3.34  10 3.34
   3  0.000  0.500  0.000-  21 2.73  21 2.73  17 2.74  18 2.74  28 2.74  27 2.74  14 2.74  15 2.74
                            30 2.74  25 2.74  23 2.74  19 2.74  10 3.35  12 3.35  10 3.35  12 3.35
   4  0.335  0.003  0.670-  27 2.71  17 2.71  24 2.71  20 2.73  20 2.73  30 2.73  14 2.73  13 2.74
                            29 2.74  16 2.76  26 2.76  22 2.76  10 3.32  11 3.34  11 3.34  12 3.34
   5  0.665  0.503  0.330-  28 2.71  18 2.71  21 2.71  19 2.73  19 2.73  25 2.73  15 2.73  16 2.74
                            26 2.74  13 2.76  29 2.76  23 2.76  12 3.32   9 3.34   9 3.34  10 3.34
   6  0.000  0.000  0.000-  24 2.73  24 2.73  17 2.74  18 2.74  28 2.74  27 2.74  14 2.74  15 2.74
                            30 2.74  25 2.74  20 2.74  22 2.74  10 3.35  12 3.35  10 3.35  12 3.35
   7  0.833  0.750  0.666-  20 1.90  23 1.90  26 1.90  16 1.90  14 1.91  30 1.91   3 3.36   6 3.36
                             4 3.36   1 3.36   1 3.36   4 3.36   5 3.36   2 3.36
   8  0.167  0.250  0.334-  19 1.90  22 1.90  29 1.90  13 1.90  15 1.91  25 1.91   3 3.36   6 3.36
                             5 3.36   2 3.36   2 3.36   5 3.36   1 3.36   4 3.36
   9  0.167  0.750  0.334-  18 1.94  28 1.94  26 1.96  16 1.96  19 1.97  22 1.97   2 3.34   5 3.34
                             2 3.34   5 3.34   3 3.35   6 3.35   1 3.38   4 3.38
  10  0.500  0.250  1.000-  27 1.93  17 1.93  24 1.93  21 1.93  25 1.96  15 1.96   1 3.32   4 3.32
                             2 3.34   5 3.34   3 3.35   6 3.35   3 3.35   6 3.35
  11  0.833  0.250  0.666-  17 1.94  27 1.94  29 1.96  13 1.96  20 1.97  23 1.97   1 3.34   4 3.34
                             1 3.34   4 3.34   3 3.35   6 3.35   5 3.38   2 3.38
  12  0.500  0.750  0.000-  28 1.93  18 1.93  24 1.93  21 1.93  30 1.96  14 1.96   2 3.32   5 3.32
                             4 3.34   1 3.34   3 3.35   6 3.35   3 3.35   6 3.35
  13  0.002  0.250  0.498-   8 1.90  11 1.96   1 2.74   4 2.74   2 2.76   5 2.76
  14  0.669  0.750  0.830-   7 1.91  12 1.96   1 2.73   4 2.73   3 2.74   6 2.74
  15  0.331  0.250  0.170-   8 1.91  10 1.96   2 2.73   5 2.73   3 2.74   6 2.74
  16  0.998  0.750  0.502-   7 1.90   9 1.96   2 2.74   5 2.74   4 2.76   1 2.76
  17  0.666  0.250  0.833-  10 1.93  11 1.94   1 2.71   4 2.71   3 2.74   6 2.74
  18  0.334  0.750  0.167-  12 1.93   9 1.94   2 2.71   5 2.71   3 2.74   6 2.74
  19  0.167  0.495  0.334-   8 1.90   9 1.97   5 2.73   5 2.73   3 2.74   1 2.76
  20  0.833  0.995  0.666-   7 1.90  11 1.97   4 2.73   4 2.73   6 2.74   2 2.76
  21  0.500  0.500  0.000-  10 1.93  12 1.93   1 2.71   5 2.71   3 2.73   3 2.73
  22  0.167  0.005  0.334-   8 1.90   9 1.97   2 2.73   2 2.73   6 2.74   4 2.76
  23  0.833  0.505  0.666-   7 1.90  11 1.97   1 2.73   1 2.73   3 2.74   5 2.76
  24  0.500  0.000  0.000-  10 1.93  12 1.93   2 2.71   4 2.71   6 2.73   6 2.73
  25  0.838  0.250  0.170-   8 1.91  10 1.96   2 2.73   5 2.73   3 2.74   6 2.74
  26  0.504  0.750  0.502-   7 1.90   9 1.96   2 2.74   5 2.74   4 2.76   1 2.76
  27  0.167  0.250  0.833-  10 1.93  11 1.94   1 2.71   4 2.71   3 2.74   6 2.74
  28  0.833  0.750  0.167-  12 1.93   9 1.94   2 2.71   5 2.71   3 2.74   6 2.74
  29  0.496  0.250  0.498-   8 1.90  11 1.96   1 2.74   4 2.74   2 2.76   5 2.76
  30  0.162  0.750  0.830-   7 1.91  12 1.96   1 2.73   4 2.73   3 2.74   6 2.74
 
  LATTYP: Found a base centered orthorhombic cell.
 ALAT       =     5.4608961267
 B/A-ratio  =     3.0071942806
 C/A-ratio  =     1.4168887056
  
  Lattice vectors:
  
 A1 = (   3.8753268170,   0.0000000000,  -7.7367634899)
 A2 = (  -7.7367634994,   0.0000000000,   3.8753268073)
 A3 = (   0.0000000000,   7.7374820441,   0.0000000000)


Analysis of symmetry for initial positions (statically):
=====================================================================
 Subroutine PRICEL returns:
 Original cell was already a primitive cell.
 

 Routine SETGRP: Setting up the symmetry group for a 
 base centered orthorhombic supercell.


 Subroutine GETGRP returns: Found  8 space group operations
 (whereof  4 operations were pure point group operations)
 out of a pool of  8 trial point group operations.


The static configuration has the point symmetry C_2h.
 The point group associated with its full space group is D_2h.


Analysis of symmetry for dynamics (positions and initial velocities):
=====================================================================
 Subroutine PRICEL returns:
 Original cell was already a primitive cell.
 

 Routine SETGRP: Setting up the symmetry group for a 
 base centered orthorhombic supercell.


 Subroutine GETGRP returns: Found  8 space group operations
 (whereof  4 operations were pure point group operations)
 out of a pool of  8 trial point group operations.


The dynamic configuration has the point symmetry C_2h.
 The point group associated with its full space group is D_2h.


Analysis of structural, dynamic, and magnetic symmetry:
=====================================================================
 Subroutine PRICEL returns:
 Original cell was already a primitive cell.
 

 Routine SETGRP: Setting up the symmetry group for a 
 base centered orthorhombic supercell.


 Subroutine GETGRP returns: Found  8 space group operations
 (whereof  4 operations were pure point group operations)
 out of a pool of  8 trial point group operations.


The magnetic configuration has the point symmetry C_2h.
 The point group associated with its full space group is D_2h.


 Subroutine INISYM returns: Found  8 space group operations
 (whereof  4 operations are pure point group operations),
 and found     1 'primitive' translations

 
 
 KPOINTS: Automatic mesh                          

Automatic generation of k-mesh.
 generate k-points for:    4    3    2
Space group operators:
 irot       det(A)        alpha          n_x          n_y          n_z        tau_x        tau_y        tau_z
    1     1.000000     0.000000     1.000000     0.000000     0.000000     0.000000     0.000000     0.000000
    2    -1.000000     0.000000     1.000000     0.000000     0.000000     0.000000     0.000000     0.000000
    3     1.000000   180.000000    -0.707107     0.000000    -0.707107     0.000000     0.000000     0.000000
    4    -1.000000   180.000000    -0.707107     0.000000    -0.707107     0.000000     0.000000     0.000000
    5     1.000000   180.000000     0.000000     1.000000     0.000000     0.000000    -0.500000     0.000000
    6    -1.000000   180.000000     0.000000     1.000000     0.000000     0.000000    -0.500000     0.000000
    7     1.000000   180.000000     0.707107     0.000000    -0.707107    -0.000000    -0.500000     0.000000
    8    -1.000000   180.000000     0.707107     0.000000    -0.707107    -0.000000    -0.500000     0.000000
 
 Subroutine IBZKPT returns following result:
 ===========================================
 
 Found     10 irreducible k-points:
 
 Following reciprocal coordinates:
            Coordinates               Weight
  0.000000  0.000000  0.000000      1.000000
  0.250000  0.000000  0.000000      2.000000
  0.500000  0.000000  0.000000      2.000000
  0.000000  0.333333  0.000000      2.000000
  0.250000  0.333333  0.000000      4.000000
  0.500000  0.333333  0.000000      4.000000
  0.000000  0.000000  0.500000      1.000000
  0.250000  0.000000  0.500000      2.000000
  0.000000  0.333333  0.500000      2.000000
  0.250000  0.333333  0.500000      4.000000
 
 Following cartesian coordinates:
            Coordinates               Weight
  0.000000  0.000000  0.000000      1.000000
  0.043136  0.000000  0.021607      2.000000
  0.086272  0.000000  0.043213      2.000000
  0.000000 -0.043080  0.000000      2.000000
  0.043136 -0.043080  0.021607      4.000000
  0.086272 -0.043080  0.043213      4.000000
  0.043059  0.000000 -0.043059      1.000000
  0.086195  0.000000 -0.021452      2.000000
  0.043059 -0.043080 -0.043059      2.000000
  0.086195 -0.043080 -0.021452      4.000000
 
 TETIRR: Found     65 inequivalent tetrahedra from      144


--------------------------------------------------------------------------------------------------------




 Dimension of arrays:
   k-points           NKPTS =     10   k-points in BZ     NKDIM =     10   number of bands    NBANDS=    146
   number of dos      NEDOS =    301   number of ions     NIONS =     30
   non local maximal  LDIM  =      8   non local SUM 2l+1 LMDIM =     32
   total plane-waves  NPLWV = 161280
   max r-space proj   IRMAX =   8439   max aug-charges    IRDMAX=  24487
   dimension x,y,z NGX =    42 NGY =   60 NGZ =   64
   dimension x,y,z NGXF=    84 NGYF=  120 NGZF=  128
   support grid    NGXF=    84 NGYF=  120 NGZF=  128
   ions per type =               6   2   4  18
   NGX,Y,Z   is equivalent  to a cutoff of  12.79, 12.89, 12.30 a.u.
   NGXF,Y,Z  is equivalent  to a cutoff of  25.57, 25.78, 24.59 a.u.

 SYSTEM =  final                                   
 POSCAR =  SCEL6_3_2_1_0_1_0/5                     

 Startparameter for this run:
   NWRITE =      2    write-flag & timer
   PREC   = accura    normal or accurate (medium, high low for compatibility)
   ISTART =      0    job   : 0-new  1-cont  2-samecut
   ICHARG =      1    charge: 1-file 2-atom 10-const
   ISPIN  =      2    spin polarized calculation?
   LNONCOLLINEAR =      F non collinear calculations
   LSORBIT =      F    spin-orbit coupling
   INIWAV =      1    electr: 0-lowe 1-rand  2-diag
   LASPH  =      F    aspherical Exc in radial PAW
   METAGGA=      F    non-selfconsistent MetaGGA calc.

 Electronic Relaxation 1
   ENCUT  =  520.0 eV  38.22 Ry    6.18 a.u.  10.15 14.39 16.09*2*pi/ulx,y,z
   ENINI  =  520.0     initial cutoff
   ENAUG  =  605.4 eV  augmentation charge cutoff
   NELM   =    100;   NELMIN=  2; NELMDL= -5     # of ELM steps 
   EDIFF  = 0.1E-02   stopping-criterion for ELM
   LREAL  =      T    real-space projection
   NLSPLINE    = F    spline interpolate recip. space projectors
   LCOMPAT=      F    compatible to vasp.4.4
   GGA_COMPAT  = T    GGA compatible to vasp.4.4-vasp.4.6
   LMAXPAW     = -100 max onsite density
   LMAXMIX     =    6 max onsite mixed and CHGCAR
   VOSKOWN=      0    Vosko Wilk Nusair interpolation
   ROPT   =   -0.00025  -0.00025  -0.00025  -0.00025
 Ionic relaxation
   EDIFFG = 0.1E-01   stopping-criterion for IOM
   NSW    =      0    number of steps for IOM
   NBLOCK =      1;   KBLOCK =      1    inner block; outer block 
   IBRION =     -1    ionic relax: 0-MD 1-quasi-New 2-CG
   NFREE  =      0    steps in history (QN), initial steepest desc. (CG)
   ISIF   =      2    stress and relaxation
   IWAVPR =     10    prediction:  0-non 1-charg 2-wave 3-comb
   ISYM   =      2    0-nonsym 1-usesym 2-fastsym
   LCORR  =      T    Harris-Foulkes like correction to forces

   POTIM  = 0.5000    time-step for ionic-motion
   TEIN   =    0.0    initial temperature
   TEBEG  =    0.0;   TEEND  =   0.0 temperature during run
   SMASS  =  -3.00    Nose mass-parameter (am)
   estimated Nose-frequenzy (Omega)   =  0.10E-29 period in steps =****** mass=  -0.681E-27a.u.
   SCALEE = 1.0000    scale energy and forces
   NPACO  =    256;   APACO  = 16.0  distance and # of slots for P.C.
   PSTRESS=    0.0 pullay stress

  Mass of Ions in am
   POMASS = 138.90 54.94 58.69 16.00
  Ionic Valenz
   ZVAL   =  11.00  7.00 10.00  6.00
  Atomic Wigner-Seitz radii
   RWIGS  =  -1.00 -1.00 -1.00 -1.00
  virtual crystal weights 
   VCA    =   1.00  1.00  1.00  1.00
   NELECT =     228.0000    total number of electrons
   NUPDOWN=      -1.0000    fix difference up-down

 DOS related values:
   EMIN   =  10.00;   EMAX   =-10.00  energy-range for DOS
   EFERMI =   0.00
   ISMEAR =    -5;   SIGMA  =   0.05  broadening in eV -4-tet -1-fermi 0-gaus

 Electronic relaxation 2 (details)
   IALGO  =     68    algorithm
   LDIAG  =      T    sub-space diagonalisation (order eigenvalues)
   LSUBROT=      F    optimize rotation matrix (better conditioning)
   TURBO    =      0    0=normal 1=particle mesh
   IRESTART =      0    0=no restart 2=restart with 2 vectors
   NREBOOT  =      0    no. of reboots
   NMIN     =      0    reboot dimension
   EREF     =   0.00    reference energy to select bands
   IMIX   =      4    mixing-type and parameters
     AMIX     =   0.40;   BMIX     =  1.00
     AMIX_MAG =   1.60;   BMIX_MAG =  1.00
     AMIN     =   0.10
     WC   =   100.;   INIMIX=   1;  MIXPRE=   1;  MAXMIX= -45

 Intra band minimization:
   WEIMIN = 0.0000     energy-eigenvalue tresh-hold
   EBREAK =  0.17E-05  absolut break condition
   DEPER  =   0.30     relativ break condition  

   TIME   =   0.40     timestep for ELM

  volume/ion in A,a.u.               =      11.56        78.04
  Fermi-wavevector in a.u.,A,eV,Ry     =   1.423312  2.689670 27.562916  2.025817
  Thomas-Fermi vector in A             =   2.543923
 
 Write flags
   LWAVE        =      F    write WAVECAR
   LDOWNSAMPLE  =      F    k-point downsampling of WAVECAR
   LCHARG       =      T    write CHGCAR
   LVTOT        =      F    write LOCPOT, total local potential
   LVHAR        =      F    write LOCPOT, Hartree potential only
   LELF         =      F    write electronic localiz. function (ELF)
   LORBIT       =     11    0 simple, 1 ext, 2 COOP (PROOUT), +10 PAW based schemes


 Dipole corrections
   LMONO  =      F    monopole corrections only (constant potential shift)
   LDIPOL =      F    correct potential (dipole corrections)
   IDIPOL =      0    1-x, 2-y, 3-z, 4-all directions 
   EPSILON=  1.0000000 bulk dielectric constant

 LDA+U is selected, type is set to LDAUTYPE =  2
   angular momentum for each species LDAUL =     0    2    2    0
   U (eV)           for each species LDAUU =   0.0  3.9  6.2  0.0
   J (eV)           for each species LDAUJ =   0.0  0.0  0.0  0.0
 Exchange correlation treatment:
   GGA     =    --    GGA type
   LEXCH   =     8    internal setting for exchange type
   VOSKOWN=      0    Vosko Wilk Nusair interpolation
   LHFCALC =     F    Hartree Fock is set to
   LHFONE  =     F    Hartree Fock one center treatment
   AEXX    =    0.0000 exact exchange contribution

 Linear response parameters
   LEPSILON=     F    determine dielectric tensor
   LRPA    =     F    only Hartree local field effects (RPA)
   LNABLA  =     F    use nabla operator in PAW spheres
   LVEL    =     F    velocity operator in full k-point grid
   LINTERFAST=   F  fast interpolation
   KINTER  =     0    interpolate to denser k-point grid
   CSHIFT  =0.1000    complex shift for real part using Kramers Kronig
   OMEGAMAX=  -1.0    maximum frequency
   DEG_THRESHOLD= 0.2000000E-02 threshold for treating states as degnerate
   RTIME   =   -0.100 relaxation time in fs
  (WPLASMAI=    0.000 imaginary part of plasma frequency in eV, 0.658/RTIME)
   DFIELD  = 0.0000000 0.0000000 0.0000000 field for delta impulse in time
 
 Orbital magnetization related:
   ORBITALMAG=     F  switch on orbital magnetization
   LCHIMAG   =     F  perturbation theory with respect to B field
   DQ        =  0.001000  dq finite difference perturbation B field
   LLRAUG    =     F  two centre corrections for induced B field



--------------------------------------------------------------------------------------------------------


 Static calculation
 charge density and potential will be updated during run
 spin polarized calculation
 RMM-DIIS sequential band-by-band and
  variant of blocked Davidson during initial phase
 perform sub-space diagonalisation
    before iterative eigenvector-optimisation
 modified Broyden-mixing scheme, WC =      100.0
 initial mixing is a Kerker type mixing with AMIX =  0.4000 and BMIX =      1.0000
 Hartree-type preconditioning will be used
 using additional bands           32
 real space projection scheme for non local part
 use partial core corrections
 calculate Harris-corrections to forces 
   (improved forces if not selfconsistent)
 use gradient corrections 
 use of overlap-Matrix (Vanderbilt PP)
 Fermi weights with tetrahedron method with Bloechl corrections


--------------------------------------------------------------------------------------------------------


  energy-cutoff  :      520.00
  volume of cell :      346.94
      direct lattice vectors                 reciprocal lattice vectors
     3.861436682  0.000000000  3.861436683     0.172544054  0.000000000  0.086426915
     0.000000000 -7.737482044  0.000000000     0.000000000 -0.129241011  0.000000000
     3.875326817  0.000000000 -7.736763490     0.086117139  0.000000000 -0.086117139

  length of vectors
     5.460896127  7.737482044  8.653072705     0.192979435  0.129241011  0.121788027


 
 k-points in units of 2pi/SCALE and weight: Automatic mesh                          
   0.00000000  0.00000000  0.00000000       0.042
   0.04313601  0.00000000  0.02160673       0.083
   0.08627203  0.00000000  0.04321346       0.083
   0.00000000 -0.04308034  0.00000000       0.083
   0.04313601 -0.04308034  0.02160673       0.167
   0.08627203 -0.04308034  0.04321346       0.167
   0.04305857  0.00000000 -0.04305857       0.042
   0.08619458  0.00000000 -0.02145184       0.083
   0.04305857 -0.04308034 -0.04305857       0.083
   0.08619458 -0.04308034 -0.02145184       0.167
 
 k-points in reciprocal lattice and weights: Automatic mesh                          
   0.00000000  0.00000000  0.00000000       0.042
   0.25000000  0.00000000  0.00000000       0.083
   0.50000000  0.00000000  0.00000000       0.083
   0.00000000  0.33333333  0.00000000       0.083
   0.25000000  0.33333333  0.00000000       0.167
   0.50000000  0.33333333  0.00000000       0.167
   0.00000000  0.00000000  0.50000000       0.042
   0.25000000  0.00000000  0.50000000       0.083
   0.00000000  0.33333333  0.50000000       0.083
   0.25000000  0.33333333  0.50000000       0.167
 
 position of ions in fractional coordinates (direct lattice) 
   0.33506552  0.49749969  0.67013115
   0.66493448  0.99749969  0.32986885
   0.00000000  0.50000000  0.00000000
   0.33506552  0.00250031  0.67013115
   0.66493448  0.50250031  0.32986885
   0.00000000  0.00000000  0.00000000
   0.83300451  0.75000000  0.66600912
   0.16699549  0.25000000  0.33399088
   0.16687721  0.75000000  0.33375432
   0.49991033  0.25000000  0.99982067
   0.83312279  0.25000000  0.66624568
   0.50008967  0.75000000  0.00017933
   0.00219015  0.25000000  0.49770450
   0.66852053  0.75000000  0.83048373
   0.33147947  0.25000000  0.16951627
   0.99780985  0.75000000  0.50229550
   0.66640489  0.25000000  0.83316937
   0.33359511  0.75000000  0.16683063
   0.16675305  0.49524655  0.33350599
   0.83324695  0.99524655  0.66649401
   0.50000000  0.50000000  0.00000000
   0.16675305  0.00475345  0.33350599
   0.83324695  0.50475345  0.66649401
   0.50000000  0.00000000  0.00000000
   0.83803670  0.25000000  0.16951627
   0.50448565  0.75000000  0.50229550
   0.16676457  0.25000000  0.83316937
   0.83323543  0.75000000  0.16683063
   0.49551435  0.25000000  0.49770450
   0.16196330  0.75000000  0.83048373
 
 position of ions in cartesian coordinates  (Angst):
   3.89081150 -3.84939492 -3.89081188
   3.84595200 -7.71813595  0.01548507
   0.00000000 -3.86874102  0.00000000
   3.89081150 -0.01934610 -3.89081188
   3.84595200 -3.88808712  0.01548507
   0.00000000  0.00000000  0.00000000
   5.79759719 -5.80311153 -1.93616089
   1.93916631 -1.93437051 -1.93916592
   1.93779283 -5.80311153 -1.93779244
   5.80500394 -1.93437051 -5.80500393
   5.79897067 -1.93437051 -1.93753437
   1.93175956 -5.80311153  1.92967712
   1.93722472 -1.93437051 -3.84216489
   5.79984555 -5.80311153 -3.84380650
   1.93691795 -1.93437051 -0.03152031
   5.79953878 -5.80311153 -0.03316192
   5.80208388 -1.93437051 -3.87275404
   1.93467962 -5.80311153 -0.00257277
   1.93635104 -3.83196126 -1.93635065
   5.80041246 -7.70070228 -1.93897615
   1.93071834 -3.86874102  1.93071834
   1.93635104 -0.03677976 -1.93635065
   5.80041246 -3.90552079 -1.93897615
   1.93071834  0.00000000  1.93071834
   3.89295661 -1.93437051  1.92451835
   3.89459861 -5.80311153 -1.93810210
   3.87275443 -1.93437051 -5.80208348
   3.86400907 -5.80311153  1.92675668
   3.84216489 -1.93437051 -1.93722471
   3.84380689 -5.80311153 -5.79984515
 


--------------------------------------------------------------------------------------------------------


 k-point  1 :   0.0000 0.0000 0.0000  plane waves:    9321
 k-point  2 :   0.2500 0.0000 0.0000  plane waves:    9353
 k-point  3 :   0.5000 0.0000 0.0000  plane waves:    9348
 k-point  4 :   0.0000 0.3333 0.0000  plane waves:    9325
 k-point  5 :   0.2500 0.3333 0.0000  plane waves:    9325
 k-point  6 :   0.5000 0.3333 0.0000  plane waves:    9352
 k-point  7 :   0.0000 0.0000 0.5000  plane waves:    9400
 k-point  8 :   0.2500 0.0000 0.5000  plane waves:    9354
 k-point  9 :   0.0000 0.3333 0.5000  plane waves:    9346
 k-point 10 :   0.2500 0.3333 0.5000  plane waves:    9351

 maximum and minimum number of plane-waves per node :       955      913

 maximum number of plane-waves:      9400
 maximum index in each direction: 
   IXMAX=   10   IYMAX=   14   IZMAX=   16
   IXMIN=  -10   IYMIN=  -14   IZMIN=  -16


 real space projection operators:
  total allocation   :      20488.34 KBytes
  max/ min on nodes  :       2398.28       1943.44


 parallel 3D FFT for wavefunctions:
    minimum data exchange during FFTs selected (reduces bandwidth)
 parallel 3D FFT for charge:
    minimum data exchange during FFTs selected (reduces bandwidth)


 total amount of memory used by VASP MPI-rank0    73145. kBytes
=======================================================================

   base      :      30000. kBytes
   nonlr-proj:       7249. kBytes
   fftplans  :       3088. kBytes
   grid      :       9014. kBytes
   one-center:        294. kBytes
   wavefun   :      23500. kBytes
 
     INWAV:  cpu time    0.0000: real time    0.0000
 Broyden mixing: mesh for mixing (old mesh)
   NGX = 21   NGY = 29   NGZ = 33
  (NGX  = 84   NGY  =120   NGZ  =128)
  gives a total of  20097 points

 initial charge density was supplied:
 charge density of overlapping atoms calculated
 number of electron     228.0000000 magnetization      20.0000000
 keeping initial charge density in first step


--------------------------------------------------------------------------------------------------------


 Maximum index for non-local projection operator         1194
 Maximum index for augmentation-charges         1854 (set IRDMAX)


--------------------------------------------------------------------------------------------------------


 First call to EWALD:  gamma=   0.252
 Maximum number of real-space cells 4x 3x 2
 Maximum number of reciprocal cells 2x 3x 3

    FEWALD:  cpu time    0.0024: real time    0.0030


--------------------------------------- Iteration      1(   1)  ---------------------------------------


    POTLOK:  cpu time    0.0822: real time    0.0839
    SETDIJ:  cpu time    0.0165: real time    0.0166
atom =   1  type =  1  l = 0
 
 onsite density matrix
 
spin component  1
 
  1.0989
 
spin component  2
 
  1.0989
 
 occupancies and eigenvectors
 
  o =  1.0989  v =  1.0000  0.0000      0.0000  0.0000
  o =  1.0989  v =  0.0000  1.0000      0.0000  0.0000
atom =   2  type =  1  l = 0
 
 onsite density matrix
 
spin component  1
 
  1.0989
 
spin component  2
 
  1.0989
 
 occupancies and eigenvectors
 
  o =  1.0989  v =  1.0000  0.0000      0.0000  0.0000
  o =  1.0989  v =  0.0000  1.0000      0.0000  0.0000
atom =   3  type =  1  l = 0
 
 onsite density matrix
 
spin component  1
 
  1.0989
 
spin component  2
 
  1.0989
 
 occupancies and eigenvectors
 
  o =  1.0989  v =  1.0000  0.0000      0.0000  0.0000
  o =  1.0989  v =  0.0000  1.0000      0.0000  0.0000
atom =   4  type =  1  l = 0
 
 onsite density matrix
 
spin component  1
 
  1.0989
 
spin component  2
 
  1.0989
 
 occupancies and eigenvectors
 
  o =  1.0989  v =  1.0000  0.0000      0.0000  0.0000
  o =  1.0989  v =  0.0000  1.0000      0.0000  0.0000
atom =   5  type =  1  l = 0
 
 onsite density matrix
 
spin component  1
 
  1.0989
 
spin component  2
 
  1.0989
 
 occupancies and eigenvectors
 
  o =  1.0989  v =  1.0000  0.0000      0.0000  0.0000
  o =  1.0989  v =  0.0000  1.0000      0.0000  0.0000
atom =   6  type =  1  l = 0
 
 onsite density matrix
 
spin component  1
 
  1.0989
 
spin component  2
 
  1.0989
 
 occupancies and eigenvectors
 
  o =  1.0989  v =  1.0000  0.0000      0.0000  0.0000
  o =  1.0989  v =  0.0000  1.0000      0.0000  0.0000
atom =   7  type =  2  l = 2
 
 onsite density matrix
 
spin component  1
 
  0.8272  0.0000  0.0000  0.0000  0.0000
  0.0000  0.8272  0.0000  0.0000  0.0000
  0.0000  0.0000  0.8272  0.0000  0.0000
  0.0000  0.0000  0.0000  0.8272  0.0000
  0.0000  0.0000  0.0000  0.0000  0.8272
 
spin component  2
 
  0.2256  0.0000  0.0000  0.0000  0.0000
  0.0000  0.2256  0.0000  0.0000  0.0000
  0.0000  0.0000  0.2256  0.0000  0.0000
  0.0000  0.0000  0.0000  0.2256  0.0000
  0.0000  0.0000  0.0000  0.0000  0.2256
 
 occupancies and eigenvectors
 
  o =  0.2256  v =  0.0000  0.0000  0.0000  0.0000  0.0000  0.0000  0.0000  1.0000  0.0000  0.0000      0.0000  0.0000  0.0000  0.0000  0.0000  0.0000  0.0000  0.0000  0.0000  0.0000
  o =  0.2256  v =  0.0000  0.0000  0.0000  0.0000  0.0000  1.0000  0.0000  0.0000  0.0000  0.0000      0.0000  0.0000  0.0000  0.0000  0.0000  0.0000  0.0000  0.0000  0.0000  0.0000
  o =  0.2256  v =  0.0000  0.0000  0.0000  0.0000  0.0000  0.0000  1.0000  0.0000  0.0000  0.0000      0.0000  0.0000  0.0000  0.0000  0.0000  0.0000  0.0000  0.0000  0.0000  0.0000
  o =  0.2256  v =  0.0000  0.0000  0.0000  0.0000  0.0000  0.0000  0.0000  0.0000  1.0000  0.0000      0.0000  0.0000  0.0000  0.0000  0.0000  0.0000  0.0000  0.0000  0.0000  0.0000
  o =  0.2256  v =  0.0000  0.0000  0.0000  0.0000  0.0000  0.0000  0.0000  0.0000  0.0000  1.0000      0.0000  0.0000  0.0000  0.0000  0.0000  0.0000  0.0000  0.0000  0.0000  0.0000
  o =  0.8272  v =  0.0000  1.0000  0.0000  0.0000  0.0000  0.0000  0.0000  0.0000  0.0000  0.0000      0.0000  0.0000  0.0000  0.0000  0.0000  0.0000  0.0000  0.0000  0.0000  0.0000
  o =  0.8272  v =  0.0000  0.0000  1.0000  0.0000  0.0000  0.0000  0.0000  0.0000  0.0000  0.0000      0.0000  0.0000  0.0000  0.0000  0.0000  0.0000  0.0000  0.0000  0.0000  0.0000
  o =  0.8272  v =  1.0000  0.0000  0.0000  0.0000  0.0000  0.0000  0.0000  0.0000  0.0000  0.0000      0.0000  0.0000  0.0000  0.0000  0.0000  0.0000  0.0000  0.0000  0.0000  0.0000
  o =  0.8272  v =  0.0000  0.0000  0.0000  1.0000  0.0000  0.0000  0.0000  0.0000  0.0000  0.0000      0.0000  0.0000  0.0000  0.0000  0.0000  0.0000  0.0000  0.0000  0.0000  0.0000
  o =  0.8272  v =  0.0000  0.0000  0.0000  0.0000  1.0000  0.0000  0.0000  0.0000  0.0000  0.0000      0.0000  0.0000  0.0000  0.0000  0.0000  0.0000  0.0000  0.0000  0.0000  0.0000
atom =   8  type =  2  l = 2
 
 onsite density matrix
 
spin component  1
 
  0.8272  0.0000  0.0000  0.0000  0.0000
  0.0000  0.8272  0.0000  0.0000  0.0000
  0.0000  0.0000  0.8272  0.0000  0.0000
  0.0000  0.0000  0.0000  0.8272  0.0000
  0.0000  0.0000  0.0000  0.0000  0.8272
 
spin component  2
 
  0.2256  0.0000  0.0000  0.0000  0.0000
  0.0000  0.2256  0.0000  0.0000  0.0000
  0.0000  0.0000  0.2256  0.0000  0.0000
  0.0000  0.0000  0.0000  0.2256  0.0000
  0.0000  0.0000  0.0000  0.0000  0.2256
 
 occupancies and eigenvectors
 
  o =  0.2256  v =  0.0000  0.0000  0.0000  0.0000  0.0000  0.0000  0.0000  1.0000  0.0000  0.0000      0.0000  0.0000  0.0000  0.0000  0.0000  0.0000  0.0000  0.0000  0.0000  0.0000
  o =  0.2256  v =  0.0000  0.0000  0.0000  0.0000  0.0000  1.0000  0.0000  0.0000  0.0000  0.0000      0.0000  0.0000  0.0000  0.0000  0.0000  0.0000  0.0000  0.0000  0.0000  0.0000
  o =  0.2256  v =  0.0000  0.0000  0.0000  0.0000  0.0000  0.0000  1.0000  0.0000  0.0000  0.0000      0.0000  0.0000  0.0000  0.0000  0.0000  0.0000  0.0000  0.0000  0.0000  0.0000
  o =  0.2256  v =  0.0000  0.0000  0.0000  0.0000  0.0000  0.0000  0.0000  0.0000  1.0000  0.0000      0.0000  0.0000  0.0000  0.0000  0.0000  0.0000  0.0000  0.0000  0.0000  0.0000
  o =  0.2256  v =  0.0000  0.0000  0.0000  0.0000  0.0000  0.0000  0.0000  0.0000  0.0000  1.0000      0.0000  0.0000  0.0000  0.0000  0.0000  0.0000  0.0000  0.0000  0.0000  0.0000
  o =  0.8272  v =  0.0000  1.0000  0.0000  0.0000  0.0000  0.0000  0.0000  0.0000  0.0000  0.0000      0.0000  0.0000  0.0000  0.0000  0.0000  0.0000  0.0000  0.0000  0.0000  0.0000
  o =  0.8272  v =  0.0000  0.0000  1.0000  0.0000  0.0000  0.0000  0.0000  0.0000  0.0000  0.0000      0.0000  0.0000  0.0000  0.0000  0.0000  0.0000  0.0000  0.0000  0.0000  0.0000
  o =  0.8272  v =  1.0000  0.0000  0.0000  0.0000  0.0000  0.0000  0.0000  0.0000  0.0000  0.0000      0.0000  0.0000  0.0000  0.0000  0.0000  0.0000  0.0000  0.0000  0.0000  0.0000
  o =  0.8272  v =  0.0000  0.0000  0.0000  1.0000  0.0000  0.0000  0.0000  0.0000  0.0000  0.0000      0.0000  0.0000  0.0000  0.0000  0.0000  0.0000  0.0000  0.0000  0.0000  0.0000
  o =  0.8272  v =  0.0000  0.0000  0.0000  0.0000  1.0000  0.0000  0.0000  0.0000  0.0000  0.0000      0.0000  0.0000  0.0000  0.0000  0.0000  0.0000  0.0000  0.0000  0.0000  0.0000
atom =   9  type =  3  l = 2
 
 onsite density matrix
 
spin component  1
 
  1.1008  0.0000  0.0000  0.0000  0.0000
  0.0000  1.1008  0.0000  0.0000  0.0000
  0.0000  0.0000  1.1008  0.0000  0.0000
  0.0000  0.0000  0.0000  1.1008  0.0000
  0.0000  0.0000  0.0000  0.0000  1.1008
 
spin component  2
 
  0.5927  0.0000  0.0000  0.0000  0.0000
  0.0000  0.5927  0.0000  0.0000  0.0000
  0.0000  0.0000  0.5927  0.0000  0.0000
  0.0000  0.0000  0.0000  0.5927  0.0000
  0.0000  0.0000  0.0000  0.0000  0.5927
 
 occupancies and eigenvectors
 
  o =  0.5927  v =  0.0000  0.0000  0.0000  0.0000  0.0000  1.0000  0.0000  0.0000  0.0000  0.0000      0.0000  0.0000  0.0000  0.0000  0.0000  0.0000  0.0000  0.0000  0.0000  0.0000
  o =  0.5927  v =  0.0000  0.0000  0.0000  0.0000  0.0000  0.0000  1.0000  0.0000  0.0000  0.0000      0.0000  0.0000  0.0000  0.0000  0.0000  0.0000  0.0000  0.0000  0.0000  0.0000
  o =  0.5927  v =  0.0000  0.0000  0.0000  0.0000  0.0000  0.0000  0.0000  1.0000  0.0000  0.0000      0.0000  0.0000  0.0000  0.0000  0.0000  0.0000  0.0000  0.0000  0.0000  0.0000
  o =  0.5927  v =  0.0000  0.0000  0.0000  0.0000  0.0000  0.0000  0.0000  0.0000  1.0000  0.0000      0.0000  0.0000  0.0000  0.0000  0.0000  0.0000  0.0000  0.0000  0.0000  0.0000
  o =  0.5927  v =  0.0000  0.0000  0.0000  0.0000  0.0000  0.0000  0.0000  0.0000  0.0000  1.0000      0.0000  0.0000  0.0000  0.0000  0.0000  0.0000  0.0000  0.0000  0.0000  0.0000
  o =  1.1008  v =  1.0000  0.0000  0.0000  0.0000  0.0000  0.0000  0.0000  0.0000  0.0000  0.0000      0.0000  0.0000  0.0000  0.0000  0.0000  0.0000  0.0000  0.0000  0.0000  0.0000
  o =  1.1008  v =  0.0000  1.0000  0.0000  0.0000  0.0000  0.0000  0.0000  0.0000  0.0000  0.0000      0.0000  0.0000  0.0000  0.0000  0.0000  0.0000  0.0000  0.0000  0.0000  0.0000
  o =  1.1008  v =  0.0000  0.0000  1.0000  0.0000  0.0000  0.0000  0.0000  0.0000  0.0000  0.0000      0.0000  0.0000  0.0000  0.0000  0.0000  0.0000  0.0000  0.0000  0.0000  0.0000
  o =  1.1008  v =  0.0000  0.0000  0.0000  1.0000  0.0000  0.0000  0.0000  0.0000  0.0000  0.0000      0.0000  0.0000  0.0000  0.0000  0.0000  0.0000  0.0000  0.0000  0.0000  0.0000
  o =  1.1008  v =  0.0000  0.0000  0.0000  0.0000  1.0000  0.0000  0.0000  0.0000  0.0000  0.0000      0.0000  0.0000  0.0000  0.0000  0.0000  0.0000  0.0000  0.0000  0.0000  0.0000
atom =  10  type =  3  l = 2
 
 onsite density matrix
 
spin component  1
 
  1.1008  0.0000  0.0000  0.0000  0.0000
  0.0000  1.1008  0.0000  0.0000  0.0000
  0.0000  0.0000  1.1008  0.0000  0.0000
  0.0000  0.0000  0.0000  1.1008  0.0000
  0.0000  0.0000  0.0000  0.0000  1.1008
 
spin component  2
 
  0.5927  0.0000  0.0000  0.0000  0.0000
  0.0000  0.5927  0.0000  0.0000  0.0000
  0.0000  0.0000  0.5927  0.0000  0.0000
  0.0000  0.0000  0.0000  0.5927  0.0000
  0.0000  0.0000  0.0000  0.0000  0.5927
 
 occupancies and eigenvectors
 
  o =  0.5927  v =  0.0000  0.0000  0.0000  0.0000  0.0000  1.0000  0.0000  0.0000  0.0000  0.0000      0.0000  0.0000  0.0000  0.0000  0.0000  0.0000  0.0000  0.0000  0.0000  0.0000
  o =  0.5927  v =  0.0000  0.0000  0.0000  0.0000  0.0000  0.0000  1.0000  0.0000  0.0000  0.0000      0.0000  0.0000  0.0000  0.0000  0.0000  0.0000  0.0000  0.0000  0.0000  0.0000
  o =  0.5927  v =  0.0000  0.0000  0.0000  0.0000  0.0000  0.0000  0.0000  1.0000  0.0000  0.0000      0.0000  0.0000  0.0000  0.0000  0.0000  0.0000  0.0000  0.0000  0.0000  0.0000
  o =  0.5927  v =  0.0000  0.0000  0.0000  0.0000  0.0000  0.0000  0.0000  0.0000  1.0000  0.0000      0.0000  0.0000  0.0000  0.0000  0.0000  0.0000  0.0000  0.0000  0.0000  0.0000
  o =  0.5927  v =  0.0000  0.0000  0.0000  0.0000  0.0000  0.0000  0.0000  0.0000  0.0000  1.0000      0.0000  0.0000  0.0000  0.0000  0.0000  0.0000  0.0000  0.0000  0.0000  0.0000
  o =  1.1008  v =  1.0000  0.0000  0.0000  0.0000  0.0000  0.0000  0.0000  0.0000  0.0000  0.0000      0.0000  0.0000  0.0000  0.0000  0.0000  0.0000  0.0000  0.0000  0.0000  0.0000
  o =  1.1008  v =  0.0000  1.0000  0.0000  0.0000  0.0000  0.0000  0.0000  0.0000  0.0000  0.0000      0.0000  0.0000  0.0000  0.0000  0.0000  0.0000  0.0000  0.0000  0.0000  0.0000
  o =  1.1008  v =  0.0000  0.0000  1.0000  0.0000  0.0000  0.0000  0.0000  0.0000  0.0000  0.0000      0.0000  0.0000  0.0000  0.0000  0.0000  0.0000  0.0000  0.0000  0.0000  0.0000
  o =  1.1008  v =  0.0000  0.0000  0.0000  1.0000  0.0000  0.0000  0.0000  0.0000  0.0000  0.0000      0.0000  0.0000  0.0000  0.0000  0.0000  0.0000  0.0000  0.0000  0.0000  0.0000
  o =  1.1008  v =  0.0000  0.0000  0.0000  0.0000  1.0000  0.0000  0.0000  0.0000  0.0000  0.0000      0.0000  0.0000  0.0000  0.0000  0.0000  0.0000  0.0000  0.0000  0.0000  0.0000
atom =  11  type =  3  l = 2
 
 onsite density matrix
 
spin component  1
 
  1.1008  0.0000  0.0000  0.0000  0.0000
  0.0000  1.1008  0.0000  0.0000  0.0000
  0.0000  0.0000  1.1008  0.0000  0.0000
  0.0000  0.0000  0.0000  1.1008  0.0000
  0.0000  0.0000  0.0000  0.0000  1.1008
 
spin component  2
 
  0.5927  0.0000  0.0000  0.0000  0.0000
  0.0000  0.5927  0.0000  0.0000  0.0000
  0.0000  0.0000  0.5927  0.0000  0.0000
  0.0000  0.0000  0.0000  0.5927  0.0000
  0.0000  0.0000  0.0000  0.0000  0.5927
 
 occupancies and eigenvectors
 
  o =  0.5927  v =  0.0000  0.0000  0.0000  0.0000  0.0000  1.0000  0.0000  0.0000  0.0000  0.0000      0.0000  0.0000  0.0000  0.0000  0.0000  0.0000  0.0000  0.0000  0.0000  0.0000
  o =  0.5927  v =  0.0000  0.0000  0.0000  0.0000  0.0000  0.0000  1.0000  0.0000  0.0000  0.0000      0.0000  0.0000  0.0000  0.0000  0.0000  0.0000  0.0000  0.0000  0.0000  0.0000
  o =  0.5927  v =  0.0000  0.0000  0.0000  0.0000  0.0000  0.0000  0.0000  1.0000  0.0000  0.0000      0.0000  0.0000  0.0000  0.0000  0.0000  0.0000  0.0000  0.0000  0.0000  0.0000
  o =  0.5927  v =  0.0000  0.0000  0.0000  0.0000  0.0000  0.0000  0.0000  0.0000  1.0000  0.0000      0.0000  0.0000  0.0000  0.0000  0.0000  0.0000  0.0000  0.0000  0.0000  0.0000
  o =  0.5927  v =  0.0000  0.0000  0.0000  0.0000  0.0000  0.0000  0.0000  0.0000  0.0000  1.0000      0.0000  0.0000  0.0000  0.0000  0.0000  0.0000  0.0000  0.0000  0.0000  0.0000
  o =  1.1008  v =  1.0000  0.0000  0.0000  0.0000  0.0000  0.0000  0.0000  0.0000  0.0000  0.0000      0.0000  0.0000  0.0000  0.0000  0.0000  0.0000  0.0000  0.0000  0.0000  0.0000
  o =  1.1008  v =  0.0000  1.0000  0.0000  0.0000  0.0000  0.0000  0.0000  0.0000  0.0000  0.0000      0.0000  0.0000  0.0000  0.0000  0.0000  0.0000  0.0000  0.0000  0.0000  0.0000
  o =  1.1008  v =  0.0000  0.0000  1.0000  0.0000  0.0000  0.0000  0.0000  0.0000  0.0000  0.0000      0.0000  0.0000  0.0000  0.0000  0.0000  0.0000  0.0000  0.0000  0.0000  0.0000
  o =  1.1008  v =  0.0000  0.0000  0.0000  1.0000  0.0000  0.0000  0.0000  0.0000  0.0000  0.0000      0.0000  0.0000  0.0000  0.0000  0.0000  0.0000  0.0000  0.0000  0.0000  0.0000
  o =  1.1008  v =  0.0000  0.0000  0.0000  0.0000  1.0000  0.0000  0.0000  0.0000  0.0000  0.0000      0.0000  0.0000  0.0000  0.0000  0.0000  0.0000  0.0000  0.0000  0.0000  0.0000
atom =  12  type =  3  l = 2
 
 onsite density matrix
 
spin component  1
 
  1.1008  0.0000  0.0000  0.0000  0.0000
  0.0000  1.1008  0.0000  0.0000  0.0000
  0.0000  0.0000  1.1008  0.0000  0.0000
  0.0000  0.0000  0.0000  1.1008  0.0000
  0.0000  0.0000  0.0000  0.0000  1.1008
 
spin component  2
 
  0.5927  0.0000  0.0000  0.0000  0.0000
  0.0000  0.5927  0.0000  0.0000  0.0000
  0.0000  0.0000  0.5927  0.0000  0.0000
  0.0000  0.0000  0.0000  0.5927  0.0000
  0.0000  0.0000  0.0000  0.0000  0.5927
 
 occupancies and eigenvectors
 
  o =  0.5927  v =  0.0000  0.0000  0.0000  0.0000  0.0000  1.0000  0.0000  0.0000  0.0000  0.0000      0.0000  0.0000  0.0000  0.0000  0.0000  0.0000  0.0000  0.0000  0.0000  0.0000
  o =  0.5927  v =  0.0000  0.0000  0.0000  0.0000  0.0000  0.0000  1.0000  0.0000  0.0000  0.0000      0.0000  0.0000  0.0000  0.0000  0.0000  0.0000  0.0000  0.0000  0.0000  0.0000
  o =  0.5927  v =  0.0000  0.0000  0.0000  0.0000  0.0000  0.0000  0.0000  1.0000  0.0000  0.0000      0.0000  0.0000  0.0000  0.0000  0.0000  0.0000  0.0000  0.0000  0.0000  0.0000
  o =  0.5927  v =  0.0000  0.0000  0.0000  0.0000  0.0000  0.0000  0.0000  0.0000  1.0000  0.0000      0.0000  0.0000  0.0000  0.0000  0.0000  0.0000  0.0000  0.0000  0.0000  0.0000
  o =  0.5927  v =  0.0000  0.0000  0.0000  0.0000  0.0000  0.0000  0.0000  0.0000  0.0000  1.0000      0.0000  0.0000  0.0000  0.0000  0.0000  0.0000  0.0000  0.0000  0.0000  0.0000
  o =  1.1008  v =  1.0000  0.0000  0.0000  0.0000  0.0000  0.0000  0.0000  0.0000  0.0000  0.0000      0.0000  0.0000  0.0000  0.0000  0.0000  0.0000  0.0000  0.0000  0.0000  0.0000
  o =  1.1008  v =  0.0000  1.0000  0.0000  0.0000  0.0000  0.0000  0.0000  0.0000  0.0000  0.0000      0.0000  0.0000  0.0000  0.0000  0.0000  0.0000  0.0000  0.0000  0.0000  0.0000
  o =  1.1008  v =  0.0000  0.0000  1.0000  0.0000  0.0000  0.0000  0.0000  0.0000  0.0000  0.0000      0.0000  0.0000  0.0000  0.0000  0.0000  0.0000  0.0000  0.0000  0.0000  0.0000
  o =  1.1008  v =  0.0000  0.0000  0.0000  1.0000  0.0000  0.0000  0.0000  0.0000  0.0000  0.0000      0.0000  0.0000  0.0000  0.0000  0.0000  0.0000  0.0000  0.0000  0.0000  0.0000
  o =  1.1008  v =  0.0000  0.0000  0.0000  0.0000  1.0000  0.0000  0.0000  0.0000  0.0000  0.0000      0.0000  0.0000  0.0000  0.0000  0.0000  0.0000  0.0000  0.0000  0.0000  0.0000
atom =  13  type =  4  l = 0
 
 onsite density matrix
 
spin component  1
 
  0.8190
 
spin component  2
 
  0.8190
 
 occupancies and eigenvectors
 
  o =  0.8190  v =  1.0000  0.0000      0.0000  0.0000
  o =  0.8190  v =  0.0000  1.0000      0.0000  0.0000
atom =  14  type =  4  l = 0
 
 onsite density matrix
 
spin component  1
 
  0.8190
 
spin component  2
 
  0.8190
 
 occupancies and eigenvectors
 
  o =  0.8190  v =  1.0000  0.0000      0.0000  0.0000
  o =  0.8190  v =  0.0000  1.0000      0.0000  0.0000
atom =  15  type =  4  l = 0
 
 onsite density matrix
 
spin component  1
 
  0.8190
 
spin component  2
 
  0.8190
 
 occupancies and eigenvectors
 
  o =  0.8190  v =  1.0000  0.0000      0.0000  0.0000
  o =  0.8190  v =  0.0000  1.0000      0.0000  0.0000
atom =  16  type =  4  l = 0
 
 onsite density matrix
 
spin component  1
 
  0.8190
 
spin component  2
 
  0.8190
 
 occupancies and eigenvectors
 
  o =  0.8190  v =  1.0000  0.0000      0.0000  0.0000
  o =  0.8190  v =  0.0000  1.0000      0.0000  0.0000
atom =  17  type =  4  l = 0
 
 onsite density matrix
 
spin component  1
 
  0.8190
 
spin component  2
 
  0.8190
 
 occupancies and eigenvectors
 
  o =  0.8190  v =  1.0000  0.0000      0.0000  0.0000
  o =  0.8190  v =  0.0000  1.0000      0.0000  0.0000
atom =  18  type =  4  l = 0
 
 onsite density matrix
 
spin component  1
 
  0.8190
 
spin component  2
 
  0.8190
 
 occupancies and eigenvectors
 
  o =  0.8190  v =  1.0000  0.0000      0.0000  0.0000
  o =  0.8190  v =  0.0000  1.0000      0.0000  0.0000
atom =  19  type =  4  l = 0
 
 onsite density matrix
 
spin component  1
 
  0.8190
 
spin component  2
 
  0.8190
 
 occupancies and eigenvectors
 
  o =  0.8190  v =  1.0000  0.0000      0.0000  0.0000
  o =  0.8190  v =  0.0000  1.0000      0.0000  0.0000
atom =  20  type =  4  l = 0
 
 onsite density matrix
 
spin component  1
 
  0.8190
 
spin component  2
 
  0.8190
 
 occupancies and eigenvectors
 
  o =  0.8190  v =  1.0000  0.0000      0.0000  0.0000
  o =  0.8190  v =  0.0000  1.0000      0.0000  0.0000
atom =  21  type =  4  l = 0
 
 onsite density matrix
 
spin component  1
 
  0.8190
 
spin component  2
 
  0.8190
 
 occupancies and eigenvectors
 
  o =  0.8190  v =  1.0000  0.0000      0.0000  0.0000
  o =  0.8190  v =  0.0000  1.0000      0.0000  0.0000
atom =  22  type =  4  l = 0
 
 onsite density matrix
 
spin component  1
 
  0.8190
 
spin component  2
 
  0.8190
 
 occupancies and eigenvectors
 
  o =  0.8190  v =  1.0000  0.0000      0.0000  0.0000
  o =  0.8190  v =  0.0000  1.0000      0.0000  0.0000
atom =  23  type =  4  l = 0
 
 onsite density matrix
 
spin component  1
 
  0.8190
 
spin component  2
 
  0.8190
 
 occupancies and eigenvectors
 
  o =  0.8190  v =  1.0000  0.0000      0.0000  0.0000
  o =  0.8190  v =  0.0000  1.0000      0.0000  0.0000
atom =  24  type =  4  l = 0
 
 onsite density matrix
 
spin component  1
 
  0.8190
 
spin component  2
 
  0.8190
 
 occupancies and eigenvectors
 
  o =  0.8190  v =  1.0000  0.0000      0.0000  0.0000
  o =  0.8190  v =  0.0000  1.0000      0.0000  0.0000
atom =  25  type =  4  l = 0
 
 onsite density matrix
 
spin component  1
 
  0.8190
 
spin component  2
 
  0.8190
 
 occupancies and eigenvectors
 
  o =  0.8190  v =  1.0000  0.0000      0.0000  0.0000
  o =  0.8190  v =  0.0000  1.0000      0.0000  0.0000
atom =  26  type =  4  l = 0
 
 onsite density matrix
 
spin component  1
 
  0.8190
 
spin component  2
 
  0.8190
 
 occupancies and eigenvectors
 
  o =  0.8190  v =  1.0000  0.0000      0.0000  0.0000
  o =  0.8190  v =  0.0000  1.0000      0.0000  0.0000
atom =  27  type =  4  l = 0
 
 onsite density matrix
 
spin component  1
 
  0.8190
 
spin component  2
 
  0.8190
 
 occupancies and eigenvectors
 
  o =  0.8190  v =  1.0000  0.0000      0.0000  0.0000
  o =  0.8190  v =  0.0000  1.0000      0.0000  0.0000
atom =  28  type =  4  l = 0
 
 onsite density matrix
 
spin component  1
 
  0.8190
 
spin component  2
 
  0.8190
 
 occupancies and eigenvectors
 
  o =  0.8190  v =  1.0000  0.0000      0.0000  0.0000
  o =  0.8190  v =  0.0000  1.0000      0.0000  0.0000
atom =  29  type =  4  l = 0
 
 onsite density matrix
 
spin component  1
 
  0.8190
 
spin component  2
 
  0.8190
 
 occupancies and eigenvectors
 
  o =  0.8190  v =  1.0000  0.0000      0.0000  0.0000
  o =  0.8190  v =  0.0000  1.0000      0.0000  0.0000
atom =  30  type =  4  l = 0
 
 onsite density matrix
 
spin component  1
 
  0.8190
 
spin component  2
 
  0.8190
 
 occupancies and eigenvectors
 
  o =  0.8190  v =  1.0000  0.0000      0.0000  0.0000
  o =  0.8190  v =  0.0000  1.0000      0.0000  0.0000
     EDDAV:  cpu time    3.5846: real time    3.6006
 BZINTS: Fermi energy: 32.747260;228.000000 electrons
         Band energy:3467.183246;  BLOECHL correction: -0.213548
       DOS:  cpu time    0.0282: real time    0.0284
    --------------------------------------------
      LOOP:  cpu time    3.7115: real time    3.7295

 eigenvalue-minimisations  :  6242
 total energy-change (2. order) : 0.3602792E+04  (-0.8047000E+04)
 number of electron     228.0000000 magnetization      20.0000000
 augmentation part      228.0000000 magnetization      20.0000000

 Free energy of the ion-electron system (eV)
  ---------------------------------------------------
  alpha Z        PSCENC =       990.30932767
  Ewald energy   TEWEN  =    -15975.15792828
  -Hartree energ DENC   =     -3645.21023781
  -exchange      EXHF   =         0.00000000
  -V(xc)+E(xc)   XCENC  =       797.59038718
  PAW double counting   =     14758.73374630   -14913.13971078
  entropy T*S    EENTRO =         0.00000000
  eigenvalues    EBANDS =      3467.18324556
  atomic energy  EATOM  =     18122.48301372
  Solvation  Ediel_sol  =         0.00000000
  ---------------------------------------------------
  free energy    TOTEN  =      3602.79184354 eV

  energy without entropy =     3602.79184354  energy(sigma->0) =     3602.79184354


--------------------------------------------------------------------------------------------------------




--------------------------------------- Iteration      1(   2)  ---------------------------------------


     EDDAV:  cpu time    3.6509: real time    3.6630
 BZINTS: Fermi energy: 16.715598;228.000000 electrons
         Band energy:1114.978824;  BLOECHL correction: -0.033273
       DOS:  cpu time    0.0287: real time    0.0288
    --------------------------------------------
      LOOP:  cpu time    3.6796: real time    3.6918

 eigenvalue-minimisations  :  6464
 total energy-change (2. order) :-0.2352204E+04  (-0.2125541E+04)
 number of electron     228.0000000 magnetization      20.0000000
 augmentation part      228.0000000 magnetization      20.0000000

 Free energy of the ion-electron system (eV)
  ---------------------------------------------------
  alpha Z        PSCENC =       990.30932767
  Ewald energy   TEWEN  =    -15975.15792828
  -Hartree energ DENC   =     -3645.21023781
  -exchange      EXHF   =         0.00000000
  -V(xc)+E(xc)   XCENC  =       797.59038718
  PAW double counting   =     14758.73374630   -14913.13971078
  entropy T*S    EENTRO =         0.00000000
  eigenvalues    EBANDS =      1114.97882426
  atomic energy  EATOM  =     18122.48301372
  Solvation  Ediel_sol  =         0.00000000
  ---------------------------------------------------
  free energy    TOTEN  =      1250.58742224 eV

  energy without entropy =     1250.58742224  energy(sigma->0) =     1250.58742224


--------------------------------------------------------------------------------------------------------




--------------------------------------- Iteration      1(   3)  ---------------------------------------


     EDDAV:  cpu time    3.6730: real time    3.6863
 BZINTS: Fermi energy: 12.458881;228.000000 electrons
         Band energy: 133.304959;  BLOECHL correction: -0.022981
       DOS:  cpu time    0.0290: real time    0.0291
    --------------------------------------------
      LOOP:  cpu time    3.7020: real time    3.7153

 eigenvalue-minimisations  :  6488
 total energy-change (2. order) :-0.9816739E+03  (-0.8798964E+03)
 number of electron     228.0000000 magnetization      20.0000000
 augmentation part      228.0000000 magnetization      20.0000000

 Free energy of the ion-electron system (eV)
  ---------------------------------------------------
  alpha Z        PSCENC =       990.30932767
  Ewald energy   TEWEN  =    -15975.15792828
  -Hartree energ DENC   =     -3645.21023781
  -exchange      EXHF   =         0.00000000
  -V(xc)+E(xc)   XCENC  =       797.59038718
  PAW double counting   =     14758.73374630   -14913.13971078
  entropy T*S    EENTRO =         0.00000000
  eigenvalues    EBANDS =       133.30495936
  atomic energy  EATOM  =     18122.48301372
  Solvation  Ediel_sol  =         0.00000000
  ---------------------------------------------------
  free energy    TOTEN  =       268.91355735 eV

  energy without entropy =      268.91355735  energy(sigma->0) =      268.91355735


--------------------------------------------------------------------------------------------------------




--------------------------------------- Iteration      1(   4)  ---------------------------------------


     EDDAV:  cpu time    4.9006: real time    4.9192
 BZINTS: Fermi energy: 11.783844;228.000000 electrons
         Band energy:-287.472773;  BLOECHL correction: -0.017336
       DOS:  cpu time    0.0269: real time    0.0270
    --------------------------------------------
      LOOP:  cpu time    4.9275: real time    4.9462

 eigenvalue-minimisations  :  9284
 total energy-change (2. order) :-0.4207777E+03  (-0.3991378E+03)
 number of electron     228.0000000 magnetization      20.0000000
 augmentation part      228.0000000 magnetization      20.0000000

 Free energy of the ion-electron system (eV)
  ---------------------------------------------------
  alpha Z        PSCENC =       990.30932767
  Ewald energy   TEWEN  =    -15975.15792828
  -Hartree energ DENC   =     -3645.21023781
  -exchange      EXHF   =         0.00000000
  -V(xc)+E(xc)   XCENC  =       797.59038718
  PAW double counting   =     14758.73374630   -14913.13971078
  entropy T*S    EENTRO =         0.00000000
  eigenvalues    EBANDS =      -287.47277316
  atomic energy  EATOM  =     18122.48301372
  Solvation  Ediel_sol  =         0.00000000
  ---------------------------------------------------
  free energy    TOTEN  =      -151.86417517 eV

  energy without entropy =     -151.86417517  energy(sigma->0) =     -151.86417517


--------------------------------------------------------------------------------------------------------




--------------------------------------- Iteration      1(   5)  ---------------------------------------


     EDDAV:  cpu time    5.6341: real time    5.6540
 BZINTS: Fermi energy: 11.298807;228.000000 electrons
         Band energy:-379.042378;  BLOECHL correction: -0.038970
       DOS:  cpu time    0.0285: real time    0.0286
    CHARGE:  cpu time    0.1730: real time    0.1739
    MIXING:  cpu time    0.0037: real time    0.0042
    --------------------------------------------
      LOOP:  cpu time    5.8393: real time    5.8608

 eigenvalue-minimisations  : 10888
 total energy-change (2. order) :-0.9156961E+02  (-0.8856470E+02)
 number of electron     228.0000014 magnetization      17.7749031
 augmentation part       31.1021983 magnetization      13.3892987

 Broyden mixing:
  rms(total) = 0.81633E+01    rms(broyden)= 0.81628E+01
  rms(prec ) = 0.96765E+01
  weight for this iteration     100.00

 Free energy of the ion-electron system (eV)
  ---------------------------------------------------
  alpha Z        PSCENC =       990.30932767
  Ewald energy   TEWEN  =    -15975.15792828
  -Hartree energ DENC   =     -3645.21023781
  -exchange      EXHF   =         0.00000000
  -V(xc)+E(xc)   XCENC  =       797.59038718
  PAW double counting   =     14758.73374630   -14913.13971078
  entropy T*S    EENTRO =         0.00000000
  eigenvalues    EBANDS =      -379.04237819
  atomic energy  EATOM  =     18122.48301372
  Solvation  Ediel_sol  =         0.00000000
  ---------------------------------------------------
  free energy    TOTEN  =      -243.43378021 eV

  energy without entropy =     -243.43378021  energy(sigma->0) =     -243.43378021


--------------------------------------------------------------------------------------------------------




--------------------------------------- Iteration      1(   6)  ---------------------------------------


    POTLOK:  cpu time    0.0790: real time    0.0803
    SETDIJ:  cpu time    0.0139: real time    0.0139
atom =   1  type =  1  l = 0
 
 onsite density matrix
 
spin component  1
 
  1.0564
 
spin component  2
 
  1.0563
 
 occupancies and eigenvectors
 
  o =  1.0563  v =  0.0000  1.0000      0.0000  0.0000
  o =  1.0564  v =  1.0000  0.0000      0.0000  0.0000
atom =   2  type =  1  l = 0
 
 onsite density matrix
 
spin component  1
 
  1.0564
 
spin component  2
 
  1.0563
 
 occupancies and eigenvectors
 
  o =  1.0563  v =  0.0000  1.0000      0.0000  0.0000
  o =  1.0564  v =  1.0000  0.0000      0.0000  0.0000
atom =   3  type =  1  l = 0
 
 onsite density matrix
 
spin component  1
 
  1.0568
 
spin component  2
 
  1.0572
 
 occupancies and eigenvectors
 
  o =  1.0568  v =  1.0000  0.0000      0.0000  0.0000
  o =  1.0572  v =  0.0000  1.0000      0.0000  0.0000
atom =   4  type =  1  l = 0
 
 onsite density matrix
 
spin component  1
 
  1.0564
 
spin component  2
 
  1.0563
 
 occupancies and eigenvectors
 
  o =  1.0563  v =  0.0000  1.0000      0.0000  0.0000
  o =  1.0564  v =  1.0000  0.0000      0.0000  0.0000
atom =   5  type =  1  l = 0
 
 onsite density matrix
 
spin component  1
 
  1.0564
 
spin component  2
 
  1.0563
 
 occupancies and eigenvectors
 
  o =  1.0563  v =  0.0000  1.0000      0.0000  0.0000
  o =  1.0564  v =  1.0000  0.0000      0.0000  0.0000
atom =   6  type =  1  l = 0
 
 onsite density matrix
 
spin component  1
 
  1.0568
 
spin component  2
 
  1.0572
 
 occupancies and eigenvectors
 
  o =  1.0568  v =  1.0000  0.0000      0.0000  0.0000
  o =  1.0572  v =  0.0000  1.0000      0.0000  0.0000
atom =   7  type =  2  l = 2
 
 onsite density matrix
 
spin component  1
 
  0.9456 -0.0033  0.0000  0.0000  0.0000
 -0.0033  0.9456 -0.0000 -0.0000  0.0000
  0.0000 -0.0000  0.3440  0.0005 -0.0001
  0.0000 -0.0000  0.0005  0.9479  0.0008
  0.0000  0.0000 -0.0001  0.0008  0.3438
 
spin component  2
 
  0.0436  0.0022 -0.0000 -0.0000 -0.0000
  0.0022  0.0436  0.0000  0.0000 -0.0000
 -0.0000  0.0000  0.4586 -0.0002  0.0007
 -0.0000  0.0000 -0.0002  0.0425 -0.0003
 -0.0000 -0.0000  0.0007 -0.0003  0.4594
 
 occupancies and eigenvectors
 
  o =  0.0415  v =  0.0000  0.0000  0.0000  0.0000  0.0000 -0.7071  0.7071 -0.0000 -0.0000 -0.0000      0.0000  0.0000  0.0000  0.0000  0.0000  0.0000  0.0000  0.0000  0.0000  0.0000
  o =  0.0425  v =  0.0000  0.0000  0.0000  0.0000  0.0000  0.0000 -0.0000 -0.0004 -1.0000 -0.0007      0.0000  0.0000  0.0000  0.0000  0.0000  0.0000  0.0000  0.0000  0.0000  0.0000
  o =  0.0458  v =  0.0000  0.0000  0.0000  0.0000  0.0000 -0.7071 -0.7071  0.0000  0.0000  0.0000      0.0000  0.0000  0.0000  0.0000  0.0000  0.0000  0.0000  0.0000  0.0000  0.0000
  o =  0.3438  v = -0.0000  0.0000  0.5000 -0.0015  0.8660  0.0000  0.0000  0.0000  0.0000  0.0000      0.0000  0.0000  0.0000  0.0000  0.0000  0.0000  0.0000  0.0000  0.0000  0.0000
  o =  0.3440  v = -0.0000 -0.0000 -0.8660 -0.0000  0.5000  0.0000  0.0000  0.0000  0.0000  0.0000      0.0000  0.0000  0.0000  0.0000  0.0000  0.0000  0.0000  0.0000  0.0000  0.0000
  o =  0.4582  v =  0.0000  0.0000  0.0000  0.0000  0.0000  0.0000  0.0000  0.8660 -0.0000 -0.5000      0.0000  0.0000  0.0000  0.0000  0.0000  0.0000  0.0000  0.0000  0.0000  0.0000
  o =  0.4599  v =  0.0000  0.0000  0.0000  0.0000  0.0000  0.0000 -0.0000 -0.5000  0.0008 -0.8660      0.0000  0.0000  0.0000  0.0000  0.0000  0.0000  0.0000  0.0000  0.0000  0.0000
  o =  0.9423  v =  0.7071  0.7071 -0.0000 -0.0000  0.0000  0.0000  0.0000  0.0000  0.0000  0.0000      0.0000  0.0000  0.0000  0.0000  0.0000  0.0000  0.0000  0.0000  0.0000  0.0000
  o =  0.9479  v = -0.0000 -0.0000 -0.0008 -1.0000 -0.0013  0.0000  0.0000  0.0000  0.0000  0.0000      0.0000  0.0000  0.0000  0.0000  0.0000  0.0000  0.0000  0.0000  0.0000  0.0000
  o =  0.9489  v = -0.7071  0.7071 -0.0000 -0.0000 -0.0000  0.0000  0.0000  0.0000  0.0000  0.0000      0.0000  0.0000  0.0000  0.0000  0.0000  0.0000  0.0000  0.0000  0.0000  0.0000
atom =   8  type =  2  l = 2
 
 onsite density matrix
 
spin component  1
 
  0.9456 -0.0033 -0.0000  0.0000  0.0000
 -0.0033  0.9456 -0.0000 -0.0000  0.0000
 -0.0000 -0.0000  0.3440  0.0005 -0.0001
  0.0000 -0.0000  0.0005  0.9479  0.0008
  0.0000  0.0000 -0.0001  0.0008  0.3438
 
spin component  2
 
  0.0436  0.0022 -0.0000 -0.0000 -0.0000
  0.0022  0.0436  0.0000  0.0000 -0.0000
 -0.0000  0.0000  0.4586 -0.0002  0.0007
 -0.0000  0.0000 -0.0002  0.0425 -0.0003
 -0.0000 -0.0000  0.0007 -0.0003  0.4594
 
 occupancies and eigenvectors
 
  o =  0.0415  v =  0.0000  0.0000  0.0000  0.0000  0.0000 -0.7071  0.7071 -0.0000 -0.0000 -0.0000      0.0000  0.0000  0.0000  0.0000  0.0000  0.0000  0.0000  0.0000  0.0000  0.0000
[...]
 -0.000  -0.001  -0.000  -0.000   0.000  -0.000  -0.000  -0.000   0.001   0.001  -0.001   0.001   0.000  -0.000  -0.000   0.000
 -0.000  -0.001   0.000  -0.000   0.000  -0.000  -0.000   0.000  -0.001  -0.000   0.001   0.001   0.000   0.000   0.000  -0.000
  0.000   0.000  -0.000   0.000  -0.000   0.000  -0.000  -0.000   0.000  -0.000   0.000   0.000  -0.001  -0.000   0.000  -0.000
  0.000   0.001   0.000   0.000  -0.000  -0.000  -0.000  -0.000   0.001   0.001   0.000  -0.001   0.001  -0.000  -0.000  -0.000
  0.000   0.001   0.000   0.000   0.000  -0.001  -0.000  -0.000   0.001  -0.002   0.001   0.001  -0.002  -0.000   0.001  -0.000
 -0.000   0.009   0.000  -0.000   0.000  -0.000   0.001  -0.001  -0.003   0.003   0.000   0.003   0.000   0.001  -0.001  -0.000
  0.000   0.001   0.000  -0.000  -0.000  -0.000   0.000   0.000   0.002  -0.001  -0.002   0.001   0.000  -0.001   0.000   0.001
  0.000   0.001  -0.000  -0.000  -0.000   0.000   0.001   0.000  -0.000  -0.002   0.002  -0.002  -0.000   0.000   0.001  -0.001
  0.000   0.001  -0.000   0.000   0.000   0.000   0.000  -0.000   0.002   0.000  -0.002  -0.001  -0.000  -0.001  -0.000   0.001
 -0.000  -0.000   0.000  -0.000  -0.000  -0.000   0.000   0.000  -0.000   0.001   0.000  -0.001   0.002   0.000  -0.000  -0.000
 -0.000  -0.001  -0.000  -0.000  -0.000   0.000   0.000   0.001  -0.001  -0.000  -0.001   0.002  -0.002   0.000   0.000   0.000


------------------------ aborting loop because EDIFF is reached ----------------------------------------


 


 total charge     
 
# of ion       s       p       d       f       tot
--------------------------------------------------
    1        2.000   5.700   0.494   0.192   8.386
    2        2.000   5.700   0.494   0.192   8.386
    3        2.000   5.700   0.491   0.191   8.382
    4        2.000   5.700   0.494   0.192   8.386
    5        2.000   5.700   0.494   0.192   8.386
    6        2.000   5.700   0.491   0.191   8.382
    7        0.360   0.578   4.862   0.000   5.799
    8        0.360   0.578   4.862   0.000   5.799
    9        0.403   0.591   8.321   0.000   9.315
   10        0.417   0.618   8.316   0.000   9.351
   11        0.403   0.591   8.321   0.000   9.315
   12        0.417   0.618   8.316   0.000   9.351
   13        1.561   3.463   0.000   0.000   5.024
   14        1.562   3.460   0.000   0.000   5.021
   15        1.562   3.460   0.000   0.000   5.021
   16        1.561   3.463   0.000   0.000   5.024
   17        1.562   3.436   0.000   0.000   4.998
   18        1.562   3.436   0.000   0.000   4.998
   19        1.562   3.460   0.000   0.000   5.022
   20        1.562   3.458   0.000   0.000   5.021
   21        1.562   3.433   0.000   0.000   4.995
   22        1.562   3.459   0.000   0.000   5.021
   23        1.562   3.460   0.000   0.000   5.022
   24        1.562   3.436   0.000   0.000   4.997
   25        1.562   3.457   0.000   0.000   5.019
   26        1.562   3.455   0.000   0.000   5.016
   27        1.562   3.431   0.000   0.000   4.993
   28        1.562   3.431   0.000   0.000   4.993
   29        1.562   3.455   0.000   0.000   5.016
   30        1.562   3.457   0.000   0.000   5.019
--------------------------------------------------
tot         42.471  99.884  45.954   1.151 189.460

 


 magnetization (x)
 
# of ion       s       p       d       f       tot
--------------------------------------------------
    1        0.001   0.001   0.008   0.003   0.012
    2        0.001   0.001   0.008   0.003   0.012
    3        0.000   0.000   0.006   0.003   0.010
    4        0.001   0.001   0.008   0.003   0.012
    5        0.001   0.001   0.008   0.003   0.012
    6        0.000   0.000   0.006   0.003   0.010
    7        0.025   0.036   3.204   0.000   3.265
    8        0.025   0.036   3.204   0.000   3.265
    9        0.010  -0.001   1.566   0.000   1.575
   10        0.014   0.006   1.464   0.000   1.483
   11        0.010  -0.001   1.566   0.000   1.575
   12        0.014   0.006   1.464   0.000   1.483
   13        0.004  -0.022   0.000   0.000  -0.018
   14        0.004  -0.025   0.000   0.000  -0.021
   15        0.004  -0.025   0.000   0.000  -0.021
   16        0.004  -0.022   0.000   0.000  -0.018
   17        0.006  -0.088   0.000   0.000  -0.082
   18        0.006  -0.088   0.000   0.000  -0.082
   19        0.005  -0.022   0.000   0.000  -0.017
   20        0.005  -0.023   0.000   0.000  -0.018
   21        0.006  -0.087   0.000   0.000  -0.082
   22        0.005  -0.023   0.000   0.000  -0.018
   23        0.005  -0.022   0.000   0.000  -0.017
   24        0.006  -0.085   0.000   0.000  -0.079
   25        0.005  -0.030   0.000   0.000  -0.025
   26        0.004  -0.032   0.000   0.000  -0.027
   27        0.006  -0.097   0.000   0.000  -0.091
   28        0.006  -0.096   0.000   0.000  -0.091
   29        0.004  -0.032   0.000   0.000  -0.027
   30        0.005  -0.030   0.000   0.000  -0.025
--------------------------------------------------
tot          0.190  -0.766  12.511   0.019  11.954

 
    CHARGE:  cpu time    0.1689: real time    0.1697
    FORLOC:  cpu time    0.0111: real time    0.0112
    FORNL :  cpu time    1.0103: real time    1.0133
    STRESS:  cpu time    3.0300: real time    3.0407
    FORCOR:  cpu time    0.0869: real time    0.0871
    FORHAR:  cpu time    0.0193: real time    0.0194
    MIXING:  cpu time    0.0127: real time    0.0127
    OFIELD:  cpu time    0.0001: real time    0.0001

  FORCE on cell =-STRESS in cart. coord.  units (eV):
  Direction    XX          YY          ZZ          XY          YZ          ZX
  --------------------------------------------------------------------------------------
  Alpha Z   990.30933   990.30933   990.30933
  Ewald   -5324.36229 -5326.49084 -5324.36234    -0.00000    -0.00000    11.99770
  Hartree  1227.84341  1229.31683  1227.84356     0.00000    -0.00000     9.61821
  E(xc)   -1066.76776 -1066.83464 -1066.76773    -0.00000     0.00000    -0.00468
  Local    -749.53627  -750.75430  -749.53560    -0.00000    -0.00000   -20.23970
  n-local   429.42218   429.19656   428.94684     0.18308     0.25464     0.35132
  augment   634.67409   635.07420   634.67395    -0.00000     0.00000    -0.16845
  Kinetic  3857.09447  3860.27759  3859.78472    -0.34802    -0.64834    -1.72575
  Fock        0.00000     0.00000     0.00000     0.00000     0.00000     0.00000
  -------------------------------------------------------------------------------------
  Total      -0.21505     0.09472    -0.21505     0.00000     0.00000    -0.11971
  in kB      -0.99311     0.43741    -0.99311     0.00000     0.00000    -0.55282
  external pressure =       -0.52 kB  Pullay stress =        0.00 kB


 VOLUME and BASIS-vectors are now :
 -----------------------------------------------------------------------------
  energy-cutoff  :      520.00
  volume of cell :      346.94
      direct lattice vectors                 reciprocal lattice vectors
     3.861436682  0.000000000  3.861436683     0.172544054  0.000000000  0.086426915
     0.000000000 -7.737482044  0.000000000     0.000000000 -0.129241011  0.000000000
     3.875326817  0.000000000 -7.736763490     0.086117139  0.000000000 -0.086117139

  length of vectors
     5.460896127  7.737482044  8.653072705     0.192979435  0.129241011  0.121788027


 FORCES acting on ions
    electron-ion (+dipol)            ewald-force                    non-local-force                 convergence-correction
 -----------------------------------------------------------------------------------------------
   0.281E+02 0.215E+02 -.281E+02   -.279E+02 -.213E+02 0.279E+02   -.196E+00 -.205E+00 0.196E+00   -.207E-02 -.457E-02 0.207E-02
   -.281E+02 0.215E+02 0.281E+02   0.279E+02 -.213E+02 -.279E+02   0.196E+00 -.205E+00 -.196E+00   0.207E-02 -.457E-02 -.207E-02
   -.405E-04 0.738E-04 -.351E-04   -.639E-13 -.853E-13 -.284E-13   -.678E-19 0.000E+00 -.108E-18   0.110E-07 -.568E-08 0.957E-08
   0.281E+02 -.215E+02 -.281E+02   -.279E+02 0.213E+02 0.279E+02   -.196E+00 0.205E+00 0.196E+00   -.207E-02 0.457E-02 0.207E-02
   -.281E+02 -.215E+02 0.281E+02   0.279E+02 0.213E+02 -.279E+02   0.196E+00 0.205E+00 -.196E+00   0.207E-02 0.457E-02 -.207E-02
   -.441E-04 0.787E-04 -.436E-04   0.497E-13 0.114E-12 -.568E-13   0.142E-18 0.000E+00 0.119E-18   0.117E-07 -.956E-08 0.114E-07
   0.589E+01 -.285E-04 -.589E+01   -.597E+01 0.207E-13 0.597E+01   0.521E-01 0.217E-18 -.521E-01   0.389E-03 -.311E-08 -.389E-03
   -.589E+01 -.285E-04 0.589E+01   0.597E+01 0.638E-13 -.597E+01   -.521E-01 -.217E-18 0.521E-01   -.389E-03 -.311E-08 0.389E-03
   -.263E+02 -.484E-04 0.263E+02   0.258E+02 0.229E-13 -.258E+02   0.435E+00 0.108E-18 -.435E+00   0.522E-02 -.424E-08 -.522E-02
   -.188E+02 -.497E-04 0.188E+02   0.183E+02 0.507E-14 -.183E+02   0.532E+00 0.217E-18 -.532E+00   0.578E-02 -.456E-08 -.578E-02
   0.263E+02 -.484E-04 -.263E+02   -.258E+02 0.516E-13 0.258E+02   -.435E+00 -.108E-18 0.435E+00   -.522E-02 -.424E-08 0.522E-02
   0.188E+02 -.497E-04 -.188E+02   -.183E+02 0.234E-13 0.183E+02   -.532E+00 -.217E-18 0.532E+00   -.578E-02 -.456E-08 0.578E-02
   0.774E+01 0.722E-04 -.387E+02   -.804E+01 0.708E-14 0.344E+02   0.318E+00 0.217E-18 0.438E+01   -.139E-02 0.128E-08 0.103E-01
   0.855E+01 0.720E-04 -.484E+02   -.844E+01 0.408E-13 0.440E+02   -.110E+00 0.000E+00 0.434E+01   -.122E-02 0.127E-08 0.919E-02
   -.855E+01 0.720E-04 0.484E+02   0.844E+01 -.794E-14 -.440E+02   0.110E+00 0.000E+00 -.434E+01   0.122E-02 0.127E-08 -.919E-02
   -.774E+01 0.722E-04 0.387E+02   0.804E+01 -.113E-13 -.344E+02   -.318E+00 -.217E-18 -.438E+01   0.139E-02 0.128E-08 -.103E-01
   0.169E+00 0.743E-04 -.110E+02   0.172E+00 0.951E-14 0.112E+02   -.351E+00 0.108E-18 -.175E+00   0.245E-03 0.128E-08 -.119E-02
   -.169E+00 0.743E-04 0.110E+02   -.172E+00 0.251E-13 -.112E+02   0.351E+00 -.108E-18 0.175E+00   -.245E-03 0.128E-08 0.119E-02
   -.969E+01 -.372E+02 0.969E+01   0.972E+01 0.323E+02 -.972E+01   -.440E-01 0.495E+01 0.440E-01   0.614E-03 0.113E-01 -.614E-03
   0.969E+01 -.372E+02 -.969E+01   -.972E+01 0.323E+02 0.972E+01   0.440E-01 0.495E+01 -.440E-01   -.614E-03 0.113E-01 0.614E-03
   -.439E-04 0.763E-04 -.461E-04   -.853E-13 -.114E-12 -.107E-13   0.000E+00 0.000E+00 0.678E-20   -.716E-08 0.113E-08 -.726E-08
   -.969E+01 0.372E+02 0.969E+01   0.972E+01 -.323E+02 -.972E+01   -.440E-01 -.495E+01 0.440E-01   0.614E-03 -.113E-01 -.614E-03
   0.969E+01 0.372E+02 -.969E+01   -.972E+01 -.323E+02 0.972E+01   0.440E-01 -.495E+01 -.440E-01   -.614E-03 -.113E-01 0.614E-03
   -.411E-04 0.743E-04 -.430E-04   -.639E-13 0.497E-13 -.284E-13   0.000E+00 0.000E+00 -.339E-20   -.849E-08 0.445E-08 -.980E-08
   -.484E+02 0.101E-03 0.855E+01   0.440E+02 -.156E-13 -.844E+01   0.434E+01 0.000E+00 -.110E+00   0.919E-02 -.704E-08 -.122E-02
   -.387E+02 0.993E-04 0.774E+01   0.344E+02 -.310E-13 -.804E+01   0.438E+01 -.434E-18 0.318E+00   0.103E-01 -.696E-08 -.139E-02
   0.110E+02 0.975E-04 -.170E+00   -.112E+02 -.216E-13 -.172E+00   0.175E+00 0.108E-18 0.351E+00   0.119E-02 -.643E-08 -.245E-03
   -.110E+02 0.975E-04 0.170E+00   0.112E+02 -.342E-13 0.172E+00   -.175E+00 -.108E-18 -.351E+00   -.119E-02 -.643E-08 0.245E-03
   0.387E+02 0.993E-04 -.774E+01   -.344E+02 -.264E-13 0.804E+01   -.438E+01 0.434E-18 -.318E+00   -.103E-01 -.696E-08 0.139E-02
   0.484E+02 0.101E-03 -.855E+01   -.440E+02 -.345E-13 0.844E+01   -.434E+01 0.000E+00 0.110E+00   -.919E-02 -.704E-08 0.122E-02
 -----------------------------------------------------------------------------------------------
   -.138E-02 0.169E-02 -.137E-02   0.782E-13 0.213E-13 0.711E-14   0.000E+00 0.000E+00 0.000E+00   0.906E-08 -.900E-07 0.444E-08
 
 
 POSITION                                       TOTAL-FORCE (eV/Angst)
 -----------------------------------------------------------------------------------
      3.89081     -3.84939     -3.89081         0.059006      0.063587     -0.059006
      3.84595     -7.71814      0.01549        -0.059006      0.063587      0.059006
      0.00000     -3.86874      0.00000         0.000000     -0.000000     -0.000000
      3.89081     -0.01935     -3.89081         0.059006     -0.063587     -0.059006
      3.84595     -3.88809      0.01549        -0.059006     -0.063587      0.059006
      0.00000      0.00000      0.00000         0.000000     -0.000000     -0.000000
      5.79760     -5.80311     -1.93616        -0.026074     -0.000000      0.026074
      1.93917     -1.93437     -1.93917         0.026074     -0.000000     -0.026074
      1.93779     -5.80311     -1.93779         0.016532     -0.000000     -0.016532
      5.80500     -1.93437     -5.80500         0.008203     -0.000000     -0.008203
      5.79897     -1.93437     -1.93753        -0.016532     -0.000000      0.016532
      1.93176     -5.80311      1.92968        -0.008203     -0.000000      0.008203
      1.93722     -1.93437     -3.84216         0.019025     -0.000000      0.014365
      5.79985     -5.80311     -3.84381        -0.007249     -0.000000      0.028580
      1.93692     -1.93437     -0.03152         0.007249     -0.000000     -0.028580
      5.79954     -5.80311     -0.03316        -0.019025     -0.000000     -0.014365
      5.80208     -1.93437     -3.87275        -0.008950     -0.000000      0.020250
      1.93468     -5.80311     -0.00257         0.008950     -0.000000     -0.020250
      1.93635     -3.83196     -1.93635        -0.013350      0.011570      0.013350
      5.80041     -7.70070     -1.93898         0.013350      0.011570     -0.013350
      1.93072     -3.86874      1.93072         0.000000     -0.000000     -0.000000
      1.93635     -0.03678     -1.93635        -0.013350     -0.011570      0.013350
      5.80041     -3.90552     -1.93898         0.013350     -0.011570     -0.013350
      1.93072      0.00000      1.93072         0.000000     -0.000000     -0.000000
      3.89296     -1.93437      1.92452         0.028580     -0.000000     -0.007249
      3.89460     -5.80311     -1.93810         0.014365     -0.000000      0.019025
      3.87275     -1.93437     -5.80208        -0.020250     -0.000000      0.008950
      3.86401     -5.80311      1.92676         0.020250     -0.000000     -0.008950
      3.84216     -1.93437     -1.93722        -0.014365     -0.000000     -0.019025
      3.84381     -5.80311     -5.79985        -0.028580     -0.000000      0.007249
 -----------------------------------------------------------------------------------
    total drift:                               -0.001378      0.001695     -0.001367


--------------------------------------------------------------------------------------------------------



  FREE ENERGIE OF THE ION-ELECTRON SYSTEM (eV)
  ---------------------------------------------------
  free  energy   TOTEN  =      -214.01737586 eV

  energy  without entropy=     -214.01737586  energy(sigma->0) =     -214.01737586
 


--------------------------------------------------------------------------------------------------------


    POTLOK:  cpu time    0.0933: real time    0.0938


--------------------------------------------------------------------------------------------------------


     LOOP+:  cpu time   90.7990: real time   91.1903
    4ORBIT:  cpu time    0.0000: real time    0.0000
 


 total charge     
 
# of ion       s       p       d       f       tot
--------------------------------------------------
    1        2.000   5.700   0.494   0.192   8.386
    2        2.000   5.700   0.494   0.192   8.386
    3        2.000   5.700   0.491   0.191   8.382
    4        2.000   5.700   0.494   0.192   8.386
    5        2.000   5.700   0.494   0.192   8.386
    6        2.000   5.700   0.491   0.191   8.382
    7        0.360   0.578   4.862   0.000   5.799
    8        0.360   0.578   4.862   0.000   5.799
    9        0.403   0.591   8.321   0.000   9.315
   10        0.417   0.618   8.316   0.000   9.351
   11        0.403   0.591   8.321   0.000   9.315
   12        0.417   0.618   8.316   0.000   9.351
   13        1.561   3.463   0.000   0.000   5.024
   14        1.562   3.460   0.000   0.000   5.021
   15        1.562   3.460   0.000   0.000   5.021
   16        1.561   3.463   0.000   0.000   5.024
   17        1.562   3.436   0.000   0.000   4.998
   18        1.562   3.436   0.000   0.000   4.998
   19        1.562   3.460   0.000   0.000   5.022
   20        1.562   3.458   0.000   0.000   5.021
   21        1.562   3.433   0.000   0.000   4.995
   22        1.562   3.459   0.000   0.000   5.021
   23        1.562   3.460   0.000   0.000   5.022
   24        1.562   3.436   0.000   0.000   4.997
   25        1.562   3.457   0.000   0.000   5.019
   26        1.562   3.455   0.000   0.000   5.016
   27        1.562   3.431   0.000   0.000   4.993
   28        1.562   3.431   0.000   0.000   4.993
   29        1.562   3.455   0.000   0.000   5.016
   30        1.562   3.457   0.000   0.000   5.019
--------------------------------------------------
tot         42.471  99.884  45.954   1.151 189.460

 


 magnetization (x)
 
# of ion       s       p       d       f       tot
--------------------------------------------------
    1        0.001   0.001   0.008   0.003   0.012
    2        0.001   0.001   0.008   0.003   0.012
    3        0.000   0.000   0.006   0.003   0.010
    4        0.001   0.001   0.008   0.003   0.012
    5        0.001   0.001   0.008   0.003   0.012
    6        0.000   0.000   0.006   0.003   0.010
    7        0.025   0.036   3.204   0.000   3.265
    8        0.025   0.036   3.204   0.000   3.265
    9        0.010  -0.001   1.566   0.000   1.575
   10        0.014   0.006   1.464   0.000   1.483
   11        0.010  -0.001   1.566   0.000   1.575
   12        0.014   0.006   1.464   0.000   1.483
   13        0.004  -0.022   0.000   0.000  -0.018
   14        0.004  -0.025   0.000   0.000  -0.021
   15        0.004  -0.025   0.000   0.000  -0.021
   16        0.004  -0.022   0.000   0.000  -0.018
   17        0.006  -0.088   0.000   0.000  -0.082
   18        0.006  -0.088   0.000   0.000  -0.082
   19        0.005  -0.022   0.000   0.000  -0.017
   20        0.005  -0.023   0.000   0.000  -0.018
   21        0.006  -0.087   0.000   0.000  -0.082
   22        0.005  -0.023   0.000   0.000  -0.018
   23        0.005  -0.022   0.000   0.000  -0.017
   24        0.006  -0.085   0.000   0.000  -0.079
   25        0.005  -0.030   0.000   0.000  -0.025
   26        0.004  -0.032   0.000   0.000  -0.027
   27        0.006  -0.097   0.000   0.000  -0.091
   28        0.006  -0.096   0.000   0.000  -0.091
   29        0.004  -0.032   0.000   0.000  -0.027
   30        0.005  -0.030   0.000   0.000  -0.025
--------------------------------------------------
tot          0.190  -0.766  12.511   0.019  11.954

 
 BZINTS: Fermi energy:  7.466749;228.000000 electrons
         Band energy:-289.154903;  BLOECHL correction: -0.031723

 total amount of memory used by VASP MPI-rank0    73145. kBytes
=======================================================================

   base      :      30000. kBytes
   nonlr-proj:       7249. kBytes
   fftplans  :       3088. kBytes
   grid      :       9014. kBytes
   one-center:        294. kBytes
   wavefun   :      23500. kBytes
 
  
  
 General timing and accounting informations for this job:
 ========================================================
  
                  Total CPU time used (sec):       98.932
                            User time (sec):       96.191
                          System time (sec):        2.741
                         Elapsed time (sec):       99.497
  
                   Maximum memory used (kb):      116356.
                   Average memory used (kb):           0.
  
                          Minor page faults:        44739
                          Major page faults:            0
                 Voluntary context switches:         1193
