       N       E                     dE             d eps       ncg     rms          rms(c)
DAV:   1     0.294936269767E+04    0.29494E+04   -0.68294E+04  3220   0.250E+03
DAV:   2     0.984221802661E+03   -0.19651E+04   -0.17747E+04  3312   0.626E+02
DAV:   3     0.187899646127E+03   -0.79632E+03   -0.71270E+03  3272   0.314E+02
DAV:   4    -0.137493635390E+03   -0.32539E+03   -0.30928E+03  4752   0.167E+02
DAV:   5    -0.200213011734E+03   -0.62719E+02   -0.60115E+02  5476   0.870E+01    0.788E+01
RMM:   6    -0.178021155250E+03    0.22192E+02   -0.58435E+02  5099   0.103E+02    0.991E+01
RMM:   7    -0.175093840016E+03    0.29273E+01   -0.96050E+01  5047   0.334E+01    0.494E+01
RMM:   8    -0.173835032186E+03    0.12588E+01   -0.50547E+01  4600   0.331E+01    0.344E+01
RMM:   9    -0.173489034133E+03    0.34600E+00   -0.26312E+01  4177   0.182E+01    0.183E+01
RMM:  10    -0.172629692070E+03    0.85934E+00   -0.51785E+00  4829   0.897E+00    0.121E+01
RMM:  11    -0.172552617434E+03    0.77075E-01   -0.21900E+00  5172   0.456E+00    0.917E+00
RMM:  12    -0.172759652821E+03   -0.20704E+00   -0.13443E+00  5190   0.324E+00    0.628E+00
RMM:  13    -0.173012755886E+03   -0.25310E+00   -0.59962E-01  4944   0.283E+00    0.499E+00
RMM:  14    -0.173182802821E+03   -0.17005E+00   -0.25629E-01  4807   0.190E+00    0.233E+00
RMM:  15    -0.173244314095E+03   -0.61511E-01   -0.14017E-01  4878   0.108E+00    0.147E+00
RMM:  16    -0.173293345341E+03   -0.49031E-01   -0.72014E-02  4659   0.774E-01    0.904E-01
RMM:  17    -0.173323439988E+03   -0.30095E-01   -0.54753E-02  4559   0.748E-01    0.575E-01
RMM:  18    -0.173335579886E+03   -0.12140E-01   -0.35927E-02  4298   0.592E-01    0.538E-01
RMM:  19    -0.173337185099E+03   -0.16052E-02   -0.11443E-02  3198   0.404E-01    0.385E-01
RMM:  20    -0.173338046701E+03   -0.86160E-03   -0.10172E-02  3208   0.366E-01    0.217E-01
RMM:  21    -0.173338600697E+03   -0.55400E-03   -0.49069E-03  2823   0.343E-01
   1 F= -.17333860E+03 E0= -.17333860E+03  d E =0.000000E+00  mag=     8.0032
