       N       E                     dE             d eps       ncg     rms          rms(c)
DAV:   1     0.159437654801E+04    0.15944E+04   -0.43236E+04  2882   0.246E+03
DAV:   2     0.451781048494E+03   -0.11426E+04   -0.10364E+04  2984   0.554E+02
DAV:   3     0.241737770282E+02   -0.42761E+03   -0.39795E+03  3232   0.291E+02
DAV:   4    -0.106967615997E+03   -0.13114E+03   -0.12659E+03  4494   0.146E+02
DAV:   5    -0.124925915826E+03   -0.17958E+02   -0.17466E+02  4710   0.610E+01    0.524E+01
RMM:   6    -0.113020279221E+03    0.11906E+02   -0.36880E+02  4646   0.999E+01    0.755E+01
RMM:   7    -0.107610877885E+03    0.54094E+01   -0.50031E+01  4325   0.355E+01    0.285E+01
RMM:   8    -0.105741226722E+03    0.18697E+01   -0.16115E+01  3922   0.284E+01    0.140E+01
RMM:   9    -0.106750179933E+03   -0.10090E+01   -0.94473E+00  4377   0.136E+01    0.783E+00
RMM:  10    -0.106895027407E+03   -0.14485E+00   -0.17593E+00  4734   0.485E+00    0.467E+00
RMM:  11    -0.106947420410E+03   -0.52393E-01   -0.10123E+00  4445   0.462E+00    0.237E+00
RMM:  12    -0.106972993516E+03   -0.25573E-01   -0.28357E-01  4358   0.247E+00    0.162E+00
RMM:  13    -0.106986193795E+03   -0.13200E-01   -0.12413E-01  4261   0.139E+00    0.795E-01
RMM:  14    -0.106993806966E+03   -0.76132E-02   -0.69185E-02  4137   0.112E+00    0.446E-01
RMM:  15    -0.106996134320E+03   -0.23274E-02   -0.29476E-02  3692   0.683E-01    0.164E-01
RMM:  16    -0.106997498996E+03   -0.13647E-02   -0.15022E-02  2967   0.521E-01    0.107E-01
RMM:  17    -0.106998383102E+03   -0.88411E-03   -0.94100E-03  2724   0.431E-01
   1 F= -.10699838E+03 E0= -.10699838E+03  d E =0.000000E+00  mag=     5.9990
