 vasp.5.4.4.18Apr17-6-g9f103f2a35 (build Oct 03 2018 13:58:34) complex          
  
 executed on             LinuxIFC date 2019.06.04  01:31:02
 running on   40 total cores
 distrk:  each k-point on   20 cores,    2 groups
 distr:  one band on NCORES_PER_BAND=  10 cores,    2 groups


--------------------------------------------------------------------------------------------------------


 INCAR:
 POTCAR:    PAW_PBE La 06Sep2000                  
 POTCAR:    PAW_PBE Mn 06Sep2000                  
 POTCAR:    PAW_PBE Ni 02Aug2007                  
 POTCAR:    PAW_PBE O 08Apr2002                   

 ----------------------------------------------------------------------------- 
|                                                                             |
|           W    W    AA    RRRRR   N    N  II  N    N   GGGG   !!!           |
|           W    W   A  A   R    R  NN   N  II  NN   N  G    G  !!!           |
|           W    W  A    A  R    R  N N  N  II  N N  N  G       !!!           |
|           W WW W  AAAAAA  RRRRR   N  N N  II  N  N N  G  GGG   !            |
|           WW  WW  A    A  R   R   N   NN  II  N   NN  G    G                |
|           W    W  A    A  R    R  N    N  II  N    N   GGGG   !!!           |
|                                                                             |
|      You have enabled k-point parallelism (KPAR>1).                         |
|      This developmental code was originally  written by Paul Kent at ORNL,  |
|      and carefully double checked in Vienna.                                |
|      GW as well as linear response parallelism added by Martijn Marsman     |
|      and Georg Kresse.                                                      |
|      Carefully verify results versus KPAR=1.                                |
|      Report problems to Paul Kent and Vienna.                               |
|                                                                             |
 ----------------------------------------------------------------------------- 

 POTCAR:    PAW_PBE La 06Sep2000                  
   VRHFIN =La : [core=Kr4d]                                                     
   LEXCH  = PE                                                                  
   EATOM  =   865.9763 eV,   63.6475 Ry                                         
                                                                                
   TITEL  = PAW_PBE La 06Sep2000                                                
   LULTRA =        F    use ultrasoft PP ?                                      
   IUNSCR =        1    unscreen: 0-lin 1-nonlin 2-no                           
   RPACOR =    2.300    partial core radius                                     
   POMASS =  138.900; ZVAL   =   11.000    mass and valenz                      
   RCORE  =    2.800    outmost cutoff radius                                   
   RWIGS  =    2.900; RWIGS  =    1.535    wigner-seitz radius (au A)           
   ENMAX  =  219.292; ENMIN  =  164.469 eV                                      
   RCLOC  =    1.601    cutoff for local pot                                    
   LCOR   =        T    correct aug charges                                     
   LPAW   =        T    paw PP                                                  
   EAUG   =  583.575                                                            
   DEXC   =    0.000                                                            
   RMAX   =    2.853    core radius for proj-oper                               
   RAUG   =    1.300    factor for augmentation sphere                          
   RDEP   =    2.802    radius for radial grids                                 
   RDEPT  =    2.156    core radius for aug-charge                              
                                                                                
   Atomic configuration                                                         
   14 entries                                                                   
     n  l   j            E        occ.                                          
     1  0  0.50    -38741.0879   2.0000                                         
     2  0  0.50     -6166.6801   2.0000                                         
     2  1  1.50     -5526.1593   6.0000                                         
     3  0  0.50     -1319.0200   2.0000                                         
     3  1  1.50     -1114.5963   6.0000                                         
     3  2  2.50      -821.1793  10.0000                                         
     4  0  0.50      -266.3851   2.0000                                         
     4  1  1.50      -199.9276   6.0000                                         
     4  2  2.50      -103.8239  10.0000                                         
     5  0  0.50       -38.9172   2.0000                                         
     6  0  0.50        -3.6792   2.0000                                         
     5  1  1.50       -22.3948   6.0000                                         
     5  2  2.50        -3.0911   0.9999                                         
     4  3  2.50        -4.3603   0.0001                                         
   Description                                                                  
     l       E           TYP  RCUT    TYP  RCUT                                 
     0    -38.9171645     23  2.800                                             
     0     -3.6792381     23  2.800                                             
     1    -22.3948300     23  2.500                                             
     1     27.2116520     23  2.500                                             
     2     -3.0910934     23  2.500                                             
     2      1.0119135     23  2.500                                             
     3     -4.3602911     23  2.800                                             
     3     -5.7208737     23  2.800                                             
  local pseudopotential read in
  partial core-charges read in
  partial kinetic energy density read in
  atomic valenz-charges read in
  non local Contribution for L=           0  read in
    real space projection operators read in
  non local Contribution for L=           0  read in
    real space projection operators read in
  non local Contribution for L=           1  read in
    real space projection operators read in
  non local Contribution for L=           1  read in
    real space projection operators read in
  non local Contribution for L=           2  read in
    real space projection operators read in
  non local Contribution for L=           2  read in
    real space projection operators read in
  non local Contribution for L=           3  read in
    real space projection operators read in
  non local Contribution for L=           3  read in
    real space projection operators read in
    PAW grid and wavefunctions read in
 
   number of l-projection  operators is LMAX  =           8
   number of lm-projection operators is LMMAX =          32
 
 POTCAR:    PAW_PBE Mn 06Sep2000                  
   VRHFIN =Mn: d6 s1                                                            
   LEXCH  = PE                                                                  
   EATOM  =   416.7541 eV,   30.6306 Ry                                         
                                                                                
   TITEL  = PAW_PBE Mn 06Sep2000                                                
   LULTRA =        F    use ultrasoft PP ?                                      
   IUNSCR =        1    unscreen: 0-lin 1-nonlin 2-no                           
   RPACOR =    2.000    partial core radius                                     
   POMASS =   54.938; ZVAL   =    7.000    mass and valenz                      
   RCORE  =    2.300    outmost cutoff radius                                   
   RWIGS  =    2.500; RWIGS  =    1.323    wigner-seitz radius (au A)           
   ENMAX  =  269.864; ENMIN  =  202.398 eV                                      
   RCLOC  =    1.725    cutoff for local pot                                    
   LCOR   =        T    correct aug charges                                     
   LPAW   =        T    paw PP                                                  
   EAUG   =  500.711                                                            
   DEXC   =    0.000                                                            
   RMAX   =    2.343    core radius for proj-oper                               
   RAUG   =    1.300    factor for augmentation sphere                          
   RDEP   =    2.338    radius for radial grids                                 
   RDEPT  =    1.911    core radius for aug-charge                              
                                                                                
   Atomic configuration                                                         
    9 entries                                                                   
     n  l   j            E        occ.                                          
     1  0  0.50     -6424.8288   2.0000                                         
     2  0  0.50      -739.1154   2.0000                                         
     2  1  1.50      -625.3949   6.0000                                         
     3  0  0.50       -81.6100   2.0000                                         
     3  1  1.50       -50.4667   6.0000                                         
     3  2  2.50        -3.3745   6.0000                                         
     4  0  0.50        -4.1331   1.0000                                         
     4  1  0.50        -4.0817   0.0000                                         
     4  3  2.50        -1.3606   0.0000                                         
   Description                                                                  
     l       E           TYP  RCUT    TYP  RCUT                                 
     2     -3.3744664     23  2.300                                             
     2     -4.7350490     23  2.300                                             
     0     -4.1331408     23  2.300                                             
     0      7.6656614     23  2.300                                             
     1     -2.7211652     23  2.300                                             
     1     20.4087390     23  2.300                                             
  local pseudopotential read in
  partial core-charges read in
  partial kinetic energy density read in
  atomic valenz-charges read in
  non local Contribution for L=           2  read in
    real space projection operators read in
  non local Contribution for L=           2  read in
    real space projection operators read in
  non local Contribution for L=           0  read in
    real space projection operators read in
  non local Contribution for L=           0  read in
    real space projection operators read in
  non local Contribution for L=           1  read in
    real space projection operators read in
  non local Contribution for L=           1  read in
    real space projection operators read in
    PAW grid and wavefunctions read in
 
   number of l-projection  operators is LMAX  =           6
   number of lm-projection operators is LMMAX =          18
 
 POTCAR:    PAW_PBE Ni 02Aug2007                  
   VRHFIN =Ni:                                                                  
   LEXCH  = PE                                                                  
   EATOM  =  1077.6739 eV,   79.2068 Ry                                         
                                                                                
   TITEL  = PAW_PBE Ni 02Aug2007                                                
   LULTRA =        F    use ultrasoft PP ?                                      
   IUNSCR =        1    unscreen: 0-lin 1-nonlin 2-no                           
   RPACOR =    2.000    partial core radius                                     
   POMASS =   58.690; ZVAL   =   10.000    mass and valenz                      
   RCORE  =    2.300    outmost cutoff radius                                   
   RWIGS  =    2.430; RWIGS  =    1.286    wigner-seitz radius (au A)           
   ENMAX  =  269.532; ENMIN  =  202.149 eV                                      
   RCLOC  =    1.201    cutoff for local pot                                    
   LCOR   =        T    correct aug charges                                     
   LPAW   =        T    paw PP                                                  
   EAUG   =  544.565                                                            
   DEXC   =    0.000                                                            
   RMAX   =    2.357    core radius for proj-oper                               
   RAUG   =    1.300    factor for augmentation sphere                          
   RDEP   =    2.390    radius for radial grids                                 
   RDEPT  =    1.838    core radius for aug-charge                              
                                                                                
   Atomic configuration                                                         
    9 entries                                                                   
     n  l   j            E        occ.                                          
     1  0  0.50     -8206.4253   2.0000                                         
     2  0  0.50      -976.1748   2.0000                                         
     2  1  1.50      -839.0571   6.0000                                         
     3  0  0.50      -105.9991   2.0000                                         
     3  1  1.50       -66.4603   6.0000                                         
     3  2  2.50        -4.6458   9.0000                                         
     4  0  0.50        -4.4926   1.0000                                         
     4  1  1.50        -4.0817   0.0000                                         
     4  3  2.50        -1.3606   0.0000                                         
   Description                                                                  
     l       E           TYP  RCUT    TYP  RCUT                                 
     2     -4.6457903     23  2.300                                             
     2     -6.0063729     23  2.300                                             
     0     -4.4925590     23  2.300                                             
     0      5.0102601     23  2.300                                             
     1     -2.7211652     23  2.300                                             
     1     16.5183231     23  2.300                                             
  local pseudopotential read in
  partial core-charges read in
  partial kinetic energy density read in
  atomic valenz-charges read in
  non local Contribution for L=           2  read in
    real space projection operators read in
  non local Contribution for L=           2  read in
    real space projection operators read in
  non local Contribution for L=           0  read in
    real space projection operators read in
  non local Contribution for L=           0  read in
    real space projection operators read in
  non local Contribution for L=           1  read in
    real space projection operators read in
  non local Contribution for L=           1  read in
    real space projection operators read in
    PAW grid and wavefunctions read in
 
   number of l-projection  operators is LMAX  =           6
   number of lm-projection operators is LMMAX =          18
 
 POTCAR:    PAW_PBE O 08Apr2002                   
   VRHFIN =O: s2p4                                                              
   LEXCH  = PE                                                                  
   EATOM  =   432.3788 eV,   31.7789 Ry                                         
                                                                                
   TITEL  = PAW_PBE O 08Apr2002                                                 
   LULTRA =        F    use ultrasoft PP ?                                      
   IUNSCR =        1    unscreen: 0-lin 1-nonlin 2-no                           
   RPACOR =    1.200    partial core radius                                     
   POMASS =   16.000; ZVAL   =    6.000    mass and valenz                      
   RCORE  =    1.520    outmost cutoff radius                                   
   RWIGS  =    1.550; RWIGS  =    0.820    wigner-seitz radius (au A)           
   ENMAX  =  400.000; ENMIN  =  300.000 eV                                      
   ICORE  =        2    local potential                                         
   LCOR   =        T    correct aug charges                                     
   LPAW   =        T    paw PP                                                  
   EAUG   =  605.392                                                            
   DEXC   =    0.000                                                            
   RMAX   =    1.553    core radius for proj-oper                               
   RAUG   =    1.300    factor for augmentation sphere                          
   RDEP   =    1.550    radius for radial grids                                 
   RDEPT  =    1.329    core radius for aug-charge                              
                                                                                
   Atomic configuration                                                         
    4 entries                                                                   
     n  l   j            E        occ.                                          
     1  0  0.50      -514.6923   2.0000                                         
     2  0  0.50       -23.9615   2.0000                                         
     2  1  0.50        -9.0305   4.0000                                         
     3  2  1.50        -9.5241   0.0000                                         
   Description                                                                  
     l       E           TYP  RCUT    TYP  RCUT                                 
     0    -23.9615318     23  1.200                                             
     0     -9.5240782     23  1.200                                             
     1     -9.0304911     23  1.520                                             
     1      8.1634956     23  1.520                                             
     2     -9.5240782      7  1.500                                             
  local pseudopotential read in
  partial core-charges read in
  partial kinetic energy density read in
  kinetic energy density of atom read in
  atomic valenz-charges read in
  non local Contribution for L=           0  read in
    real space projection operators read in
  non local Contribution for L=           0  read in
    real space projection operators read in
  non local Contribution for L=           1  read in
    real space projection operators read in
  non local Contribution for L=           1  read in
    real space projection operators read in
    PAW grid and wavefunctions read in
 
   number of l-projection  operators is LMAX  =           4
   number of lm-projection operators is LMMAX =           8
 
 Optimization of the real space projectors (new method)

 maximal supplied QI-value         = 13.42
 optimisation between [QCUT,QGAM] = [ 11.67, 23.35] = [ 38.16,152.62] Ry 
 Optimized for a Real-space Cutoff    1.63 Angstroem

   l    n(q)    QCUT    max X(q) W(low)/X(q) W(high)/X(q)  e(spline) 
   0     11    11.673    13.882    0.27E-04    0.79E-05    0.11E-06
   0     11    11.673    12.184    0.39E-04    0.13E-04    0.19E-06
   1     11    11.673     4.523    0.73E-05    0.76E-05    0.12E-06
   1     11    11.673     4.424    0.87E-05    0.13E-04    0.19E-06
   2     10    11.673    52.481    0.65E-04    0.36E-04    0.18E-06
   2     10    11.673    38.501    0.61E-04    0.33E-04    0.17E-06
   3     10    11.673    65.631    0.17E-03    0.14E-03    0.37E-06
   3     10    11.673    56.854    0.17E-03    0.14E-03    0.37E-06
 Optimization of the real space projectors (new method)

 maximal supplied QI-value         = 16.25
 optimisation between [QCUT,QGAM] = [ 11.54, 23.24] = [ 37.28,151.24] Ry 
 Optimized for a Real-space Cutoff    1.53 Angstroem

   l    n(q)    QCUT    max X(q) W(low)/X(q) W(high)/X(q)  e(spline) 
   2     10    11.539   110.144    0.12E-03    0.13E-03    0.25E-06
   2     10    11.539   103.200    0.12E-03    0.13E-03    0.25E-06
   0     11    11.539    68.437    0.46E-04    0.21E-04    0.32E-06
   0     11    11.539    33.971    0.37E-04    0.19E-04    0.29E-06
   1     10    11.539    17.065    0.51E-04    0.22E-04    0.13E-06
   1     10    11.539    12.540    0.41E-04    0.18E-04    0.11E-06
 Optimization of the real space projectors (new method)

 maximal supplied QI-value         = 16.25
 optimisation between [QCUT,QGAM] = [ 11.54, 23.24] = [ 37.28,151.24] Ry 
 Optimized for a Real-space Cutoff    1.45 Angstroem

   l    n(q)    QCUT    max X(q) W(low)/X(q) W(high)/X(q)  e(spline) 
   2      9    11.539    60.317    0.19E-03    0.47E-04    0.16E-06
   2      9    11.539    55.921    0.19E-03    0.48E-04    0.16E-06
   0     10    11.539    51.690    0.80E-04    0.50E-04    0.24E-06
   0     10    11.539    30.015    0.73E-04    0.45E-04    0.22E-06
   1     10    11.539    18.849    0.87E-04    0.16E-03    0.71E-07
   1     10    11.539    14.624    0.73E-04    0.13E-03    0.64E-07
 Optimization of the real space projectors (new method)

 maximal supplied QI-value         = 24.76
 optimisation between [QCUT,QGAM] = [ 11.64, 23.27] = [ 37.91,151.63] Ry 
 Optimized for a Real-space Cutoff    1.14 Angstroem

   l    n(q)    QCUT    max X(q) W(low)/X(q) W(high)/X(q)  e(spline) 
   0      8    11.635    20.381    0.10E-03    0.33E-03    0.24E-06
   0      8    11.635    15.268    0.11E-03    0.35E-03    0.26E-06
   1      7    11.635     5.964    0.24E-03    0.31E-03    0.30E-06
   1      7    11.635     5.382    0.22E-03    0.25E-03    0.26E-06
  PAW_PBE La 06Sep2000                  :
 energy of atom  1       EATOM= -865.9763
 kinetic energy error for atom=    0.0009 (will be added to EATOM!!)
  PAW_PBE Mn 06Sep2000                  :
 energy of atom  2       EATOM= -416.7541
 kinetic energy error for atom=    0.0024 (will be added to EATOM!!)
  PAW_PBE Ni 02Aug2007                  :
 energy of atom  3       EATOM=-1077.6739
 kinetic energy error for atom=    0.0030 (will be added to EATOM!!)
  PAW_PBE O 08Apr2002                   :
 energy of atom  4       EATOM= -432.3788
 kinetic energy error for atom=    0.0208 (will be added to EATOM!!)
 
 
 POSCAR: SCEL6_6_1_1_0_4_1/4                     
  positions in direct lattice
  velocities in cartesian coordinates
 exchange correlation table for  LEXCH =        8
   RHO(1)=    0.500       N(1)  =     2000
   RHO(2)=  100.500       N(2)  =     4000
 


--------------------------------------------------------------------------------------------------------


 ion  position               nearest neighbor table
   1  0.500  0.331  0.841-  18 2.69  23 2.70  30 2.70  29 2.73  22 2.73  17 2.75  17 2.75  28 2.77
                            21 2.77  16 2.81  20 2.82  27 2.82  12 3.30  11 3.33  11 3.33   9 3.34
   2  0.000  0.661  0.674-  17 2.65  22 2.68  29 2.68  27 2.74  20 2.74  28 2.75  21 2.75  16 2.75
                            16 2.75  19 2.80  26 2.80  15 2.82  11 3.27  10 3.32   9 3.35   9 3.35
   3  0.500  0.004  0.502-  21 2.71  28 2.71  27 2.71  20 2.71  14 2.73  16 2.74  15 2.75  15 2.75
                            25 2.75  24 2.75  26 2.77  19 2.77   7 3.32  10 3.33  10 3.33  12 3.35
   4  0.000  0.331  0.324-  23 2.65  30 2.65  13 2.70  25 2.70  24 2.70  14 2.75  14 2.75  15 2.79
                            19 2.79  26 2.79  20 2.82  27 2.82  11 3.28  12 3.31  12 3.31   8 3.34
   5  0.500  0.657  0.160-  23 2.67  30 2.67  29 2.69  22 2.69  14 2.73  13 2.75  13 2.75  18 2.77
                            26 2.80  19 2.80  11 3.31  11 3.31  12 3.31   9 3.32   7 3.40   8 3.42
   6  0.000  0.015  0.998-  23 2.67  30 2.67  17 2.68  18 2.75  18 2.75  21 2.75  28 2.75  25 2.77
                            24 2.77  11 3.27  10 3.33  12 3.34  12 3.34   9 3.39   9 3.39   8 3.41
   7  0.500  0.497  0.500-  14 1.88  20 1.88  27 1.88  16 1.94  26 1.95  19 1.95   3 3.32   2 3.39
                             2 3.39   5 3.40   3 3.41   4 3.41   4 3.41
   8  0.000  0.834  0.333-  13 1.89  24 1.89  25 1.89  15 1.90  19 1.95  26 1.95   4 3.34   3 3.38
                             3 3.38   4 3.39   6 3.41   5 3.42   5 3.42
   9  0.500  0.834  0.834-  18 1.89  22 1.89  29 1.89  28 1.90  21 1.90  16 1.95   5 3.32   1 3.34
                             2 3.35   2 3.35   3 3.35   1 3.38   6 3.39   6 3.39
  10  0.000  0.166  0.665-  17 1.94  15 1.96  21 1.98  28 1.98  27 1.99  20 1.99   2 3.32   6 3.33
                             3 3.33   3 3.33
  11  0.000  0.502  1.000-  23 1.96  30 1.96  17 1.97  29 1.98  22 1.98  13 1.99   6 3.27   2 3.27
                             4 3.28   5 3.31   5 3.31   1 3.33   1 3.33
  12  0.500  0.164  0.168-  23 1.94  30 1.94  25 1.97  24 1.97  18 1.99  14 1.99   1 3.30   4 3.31
                             4 3.31   5 3.31   6 3.34   6 3.34   3 3.35
  13  0.000  0.670  0.172-   8 1.89  11 1.99   4 2.70   5 2.75   5 2.75
  14  0.500  0.338  0.338-   7 1.88  12 1.99   3 2.73   5 2.73   4 2.75   4 2.75
  15  0.000  0.996  0.497-   8 1.90  10 1.96   3 2.75   3 2.75   4 2.79   2 2.82
  16  0.500  0.667  0.665-   7 1.94   9 1.95   3 2.74   2 2.75   2 2.75   1 2.81
  17  0.000  0.335  0.830-  10 1.94  11 1.97   2 2.65   6 2.68   1 2.75   1 2.75
  18  0.500  0.996  0.996-   9 1.89  12 1.99   1 2.69   6 2.75   6 2.75   5 2.77
  19  0.749  0.667  0.418-   7 1.95   8 1.95   3 2.77   4 2.79   2 2.80   5 2.80
  20  0.257  0.338  0.580-   7 1.88  10 1.99   3 2.71   2 2.74   1 2.82   4 2.82
  21  0.745  0.995  0.750-   9 1.90  10 1.98   3 2.71   2 2.75   6 2.75   1 2.77
  22  0.257  0.670  0.914-   9 1.89  11 1.98   2 2.68   5 2.69   1 2.73
  23  0.749  0.333  0.086-  12 1.94  11 1.96   4 2.65   5 2.67   6 2.67   1 2.70
  24  0.244  0.997  0.253-   8 1.89  12 1.97   4 2.70   3 2.75   6 2.77
  25  0.756  0.997  0.253-   8 1.89  12 1.97   4 2.70   3 2.75   6 2.77
  26  0.251  0.667  0.418-   7 1.95   8 1.95   3 2.77   4 2.79   2 2.80   5 2.80
  27  0.743  0.338  0.580-   7 1.88  10 1.99   3 2.71   2 2.74   1 2.82   4 2.82
  28  0.255  0.995  0.750-   9 1.90  10 1.98   3 2.71   2 2.75   6 2.75   1 2.77
  29  0.743  0.670  0.914-   9 1.89  11 1.98   2 2.68   5 2.69   1 2.73
  30  0.251  0.333  0.086-  12 1.94  11 1.96   4 2.65   5 2.67   6 2.67   1 2.70
 
  LATTYP: Found a simple monoclinic cell.
 ALAT       =    11.6436203924
 B/A-ratio  =     0.4714766935
 C/A-ratio  =     1.4143659207
 COS(beta)  =    -0.9428647909
  
  Lattice vectors:
  
 A1 = (   0.0019407007,  -0.0019407007, -11.6436200690)
 A2 = (  -3.8818010157,  -3.8818010157,   0.0000000000)
 A3 = (  -3.8823761728,   3.8823761728,  15.5261240748)


Analysis of symmetry for initial positions (statically):
=====================================================================
 Subroutine PRICEL returns:
 Original cell was already a primitive cell.
 

 Routine SETGRP: Setting up the symmetry group for a 
 simple monoclinic supercell.


 Subroutine GETGRP returns: Found  2 space group operations
 (whereof  2 operations were pure point group operations)
 out of a pool of  4 trial point group operations.


The static configuration has the point symmetry C_1h.


Analysis of symmetry for dynamics (positions and initial velocities):
=====================================================================
 Subroutine PRICEL returns:
 Original cell was already a primitive cell.
 

 Routine SETGRP: Setting up the symmetry group for a 
 simple monoclinic supercell.


 Subroutine GETGRP returns: Found  2 space group operations
 (whereof  2 operations were pure point group operations)
 out of a pool of  4 trial point group operations.


The dynamic configuration has the point symmetry C_1h.


Analysis of structural, dynamic, and magnetic symmetry:
=====================================================================
 Subroutine PRICEL returns:
 Original cell was already a primitive cell.
 

 Routine SETGRP: Setting up the symmetry group for a 
 simple monoclinic supercell.


 Subroutine GETGRP returns: Found  2 space group operations
 (whereof  2 operations were pure point group operations)
 out of a pool of  4 trial point group operations.


The magnetic configuration has the point symmetry C_1h.


 Subroutine INISYM returns: Found  2 space group operations
 (whereof  2 operations are pure point group operations),
 and found     1 'primitive' translations

 
 
 KPOINTS: Automatic mesh                          

Automatic generation of k-mesh.
 generate k-points for:    4    3    2
Space group operators:
 irot       det(A)        alpha          n_x          n_y          n_z        tau_x        tau_y        tau_z
    1     1.000000     0.000001     1.000000     0.000000     0.000000     0.000000     0.000000     0.000000
    2    -1.000000   180.000000     0.707107     0.707107     0.000000     0.000000     0.000000     0.000000
 
 Subroutine IBZKPT returns following result:
 ===========================================
 
 Found     12 irreducible k-points:
 
 Following reciprocal coordinates:
            Coordinates               Weight
  0.000000  0.000000  0.000000      1.000000
  0.250000  0.000000  0.000000      2.000000
  0.500000  0.000000  0.000000      1.000000
  0.000000  0.333333  0.000000      2.000000
  0.250000  0.333333  0.000000      4.000000
  0.500000  0.333333  0.000000      2.000000
  0.000000  0.000000  0.500000      1.000000
  0.250000 -0.000000  0.500000      2.000000
  0.500000 -0.000000  0.500000      1.000000
  0.000000  0.333333  0.500000      2.000000
  0.250000  0.333333  0.500000      4.000000
  0.500000  0.333333  0.500000      2.000000
 
 Following cartesian coordinates:
            Coordinates               Weight
  0.000000  0.000000  0.000000      1.000000
  0.032202  0.032202  0.000000      2.000000
  0.064403  0.064403  0.000000      1.000000
 -0.028634  0.028634  0.028618      2.000000
  0.003568  0.060835  0.028618      4.000000
  0.035769  0.093037  0.028618      2.000000
  0.021486 -0.021486  0.042949      1.000000
  0.053688  0.010716  0.042949      2.000000
  0.085889  0.042917  0.042949      1.000000
 -0.007148  0.007148  0.071568      2.000000
  0.025054  0.039349  0.071568      4.000000
  0.057255  0.071551  0.071568      2.000000
 
 TETIRR: Found     72 inequivalent tetrahedra from      144


--------------------------------------------------------------------------------------------------------




 Dimension of arrays:
   k-points           NKPTS =     12   k-points in BZ     NKDIM =     12   number of bands    NBANDS=    146
   number of dos      NEDOS =    301   number of ions     NIONS =     30
   non local maximal  LDIM  =      8   non local SUM 2l+1 LMDIM =     32
   total plane-waves  NPLWV = 151200
   max r-space proj   IRMAX =   7830   max aug-charges    IRDMAX=  22724
   dimension x,y,z NGX =    42 NGY =   50 NGZ =   72
   dimension x,y,z NGXF=    84 NGYF=  100 NGZF=  144
   support grid    NGXF=    84 NGYF=  100 NGZF=  144
   ions per type =               6   3   3  18
   NGX,Y,Z   is equivalent  to a cutoff of  12.72, 12.37, 12.59 a.u.
   NGXF,Y,Z  is equivalent  to a cutoff of  25.44, 24.73, 25.19 a.u.

 SYSTEM =  final                                   
 POSCAR =  SCEL6_6_1_1_0_4_1/4                     

 Startparameter for this run:
   NWRITE =      2    write-flag & timer
   PREC   = accura    normal or accurate (medium, high low for compatibility)
   ISTART =      0    job   : 0-new  1-cont  2-samecut
   ICHARG =      1    charge: 1-file 2-atom 10-const
   ISPIN  =      2    spin polarized calculation?
   LNONCOLLINEAR =      F non collinear calculations
   LSORBIT =      F    spin-orbit coupling
   INIWAV =      1    electr: 0-lowe 1-rand  2-diag
   LASPH  =      F    aspherical Exc in radial PAW
   METAGGA=      F    non-selfconsistent MetaGGA calc.

 Electronic Relaxation 1
   ENCUT  =  520.0 eV  38.22 Ry    6.18 a.u.  10.21 12.50 17.67*2*pi/ulx,y,z
   ENINI  =  520.0     initial cutoff
   ENAUG  =  605.4 eV  augmentation charge cutoff
   NELM   =    100;   NELMIN=  2; NELMDL= -5     # of ELM steps 
   EDIFF  = 0.1E-02   stopping-criterion for ELM
   LREAL  =      T    real-space projection
   NLSPLINE    = F    spline interpolate recip. space projectors
   LCOMPAT=      F    compatible to vasp.4.4
   GGA_COMPAT  = T    GGA compatible to vasp.4.4-vasp.4.6
   LMAXPAW     = -100 max onsite density
   LMAXMIX     =    6 max onsite mixed and CHGCAR
   VOSKOWN=      0    Vosko Wilk Nusair interpolation
   ROPT   =   -0.00025  -0.00025  -0.00025  -0.00025
 Ionic relaxation
   EDIFFG = 0.1E-01   stopping-criterion for IOM
   NSW    =      0    number of steps for IOM
   NBLOCK =      1;   KBLOCK =      1    inner block; outer block 
   IBRION =     -1    ionic relax: 0-MD 1-quasi-New 2-CG
   NFREE  =      0    steps in history (QN), initial steepest desc. (CG)
   ISIF   =      2    stress and relaxation
   IWAVPR =     10    prediction:  0-non 1-charg 2-wave 3-comb
   ISYM   =      2    0-nonsym 1-usesym 2-fastsym
   LCORR  =      T    Harris-Foulkes like correction to forces

   POTIM  = 0.5000    time-step for ionic-motion
   TEIN   =    0.0    initial temperature
   TEBEG  =    0.0;   TEEND  =   0.0 temperature during run
   SMASS  =  -3.00    Nose mass-parameter (am)
   estimated Nose-frequenzy (Omega)   =  0.10E-29 period in steps =****** mass=  -0.689E-27a.u.
   SCALEE = 1.0000    scale energy and forces
   NPACO  =    256;   APACO  = 16.0  distance and # of slots for P.C.
   PSTRESS=    0.0 pullay stress

  Mass of Ions in am
   POMASS = 138.90 54.94 58.69 16.00
  Ionic Valenz
   ZVAL   =  11.00  7.00 10.00  6.00
  Atomic Wigner-Seitz radii
   RWIGS  =  -1.00 -1.00 -1.00 -1.00
  virtual crystal weights 
   VCA    =   1.00  1.00  1.00  1.00
   NELECT =     225.0000    total number of electrons
   NUPDOWN=      -1.0000    fix difference up-down

 DOS related values:
   EMIN   =  10.00;   EMAX   =-10.00  energy-range for DOS
   EFERMI =   0.00
   ISMEAR =    -5;   SIGMA  =   0.05  broadening in eV -4-tet -1-fermi 0-gaus

 Electronic relaxation 2 (details)
   IALGO  =     68    algorithm
   LDIAG  =      T    sub-space diagonalisation (order eigenvalues)
   LSUBROT=      F    optimize rotation matrix (better conditioning)
   TURBO    =      0    0=normal 1=particle mesh
   IRESTART =      0    0=no restart 2=restart with 2 vectors
   NREBOOT  =      0    no. of reboots
   NMIN     =      0    reboot dimension
   EREF     =   0.00    reference energy to select bands
   IMIX   =      4    mixing-type and parameters
     AMIX     =   0.40;   BMIX     =  1.00
     AMIX_MAG =   1.60;   BMIX_MAG =  1.00
     AMIN     =   0.10
     WC   =   100.;   INIMIX=   1;  MIXPRE=   1;  MAXMIX= -45

 Intra band minimization:
   WEIMIN = 0.0000     energy-eigenvalue tresh-hold
   EBREAK =  0.17E-05  absolut break condition
   DEPER  =   0.30     relativ break condition  

   TIME   =   0.40     timestep for ELM

  volume/ion in A,a.u.               =      11.69        78.89
  Fermi-wavevector in a.u.,A,eV,Ry     =   1.411939  2.668178 27.124185  1.993571
  Thomas-Fermi vector in A             =   2.533739
 
 Write flags
   LWAVE        =      F    write WAVECAR
   LDOWNSAMPLE  =      F    k-point downsampling of WAVECAR
   LCHARG       =      T    write CHGCAR
   LVTOT        =      F    write LOCPOT, total local potential
   LVHAR        =      F    write LOCPOT, Hartree potential only
   LELF         =      F    write electronic localiz. function (ELF)
   LORBIT       =     11    0 simple, 1 ext, 2 COOP (PROOUT), +10 PAW based schemes


 Dipole corrections
   LMONO  =      F    monopole corrections only (constant potential shift)
   LDIPOL =      F    correct potential (dipole corrections)
   IDIPOL =      0    1-x, 2-y, 3-z, 4-all directions 
   EPSILON=  1.0000000 bulk dielectric constant

 LDA+U is selected, type is set to LDAUTYPE =  2
   angular momentum for each species LDAUL =     0    2    2    0
   U (eV)           for each species LDAUU =   0.0  3.9  6.2  0.0
   J (eV)           for each species LDAUJ =   0.0  0.0  0.0  0.0
 Exchange correlation treatment:
   GGA     =    --    GGA type
   LEXCH   =     8    internal setting for exchange type
   VOSKOWN=      0    Vosko Wilk Nusair interpolation
   LHFCALC =     F    Hartree Fock is set to
   LHFONE  =     F    Hartree Fock one center treatment
   AEXX    =    0.0000 exact exchange contribution

 Linear response parameters
   LEPSILON=     F    determine dielectric tensor
   LRPA    =     F    only Hartree local field effects (RPA)
   LNABLA  =     F    use nabla operator in PAW spheres
   LVEL    =     F    velocity operator in full k-point grid
   LINTERFAST=   F  fast interpolation
   KINTER  =     0    interpolate to denser k-point grid
   CSHIFT  =0.1000    complex shift for real part using Kramers Kronig
   OMEGAMAX=  -1.0    maximum frequency
   DEG_THRESHOLD= 0.2000000E-02 threshold for treating states as degnerate
   RTIME   =   -0.100 relaxation time in fs
  (WPLASMAI=    0.000 imaginary part of plasma frequency in eV, 0.658/RTIME)
   DFIELD  = 0.0000000 0.0000000 0.0000000 field for delta impulse in time
 
 Orbital magnetization related:
   ORBITALMAG=     F  switch on orbital magnetization
   LCHIMAG   =     F  perturbation theory with respect to B field
   DQ        =  0.001000  dq finite difference perturbation B field
   LLRAUG    =     F  two centre corrections for induced B field



--------------------------------------------------------------------------------------------------------


 Static calculation
 charge density and potential will be updated during run
 spin polarized calculation
 RMM-DIIS sequential band-by-band and
  variant of blocked Davidson during initial phase
 perform sub-space diagonalisation
    before iterative eigenvector-optimisation
 modified Broyden-mixing scheme, WC =      100.0
 initial mixing is a Kerker type mixing with AMIX =  0.4000 and BMIX =      1.0000
 Hartree-type preconditioning will be used
 using additional bands           33
 real space projection scheme for non local part
 use partial core corrections
 calculate Harris-corrections to forces 
   (improved forces if not selfconsistent)
 use gradient corrections 
 use of overlap-Matrix (Vanderbilt PP)
 Fermi weights with tetrahedron method with Bloechl corrections


--------------------------------------------------------------------------------------------------------


  energy-cutoff  :      520.00
  volume of cell :      350.72
      direct lattice vectors                 reciprocal lattice vectors
     3.881801016  3.881801016  0.000000000     0.128806190  0.128806190  0.000000000
    -3.880435472  3.880435472  3.882504006    -0.085900981  0.085900981  0.085855308
     3.878494771 -3.878494771  7.761116063     0.042972029 -0.042972029  0.085898268

  length of vectors
     5.489695643  6.722305874  9.503702748     0.182159461  0.148758498  0.105222159


 
 k-points in units of 2pi/SCALE and weight: Automatic mesh                          
   0.00000000  0.00000000  0.00000000       0.042
   0.03220155  0.03220155  0.00000000       0.083
   0.06440310  0.06440310  0.00000000       0.042
  -0.02863366  0.02863366  0.02861844       0.083
   0.00356789  0.06083521  0.02861844       0.167
   0.03576943  0.09303676  0.02861844       0.083
   0.02148601 -0.02148601  0.04294913       0.042
   0.05368756  0.01071553  0.04294913       0.083
   0.08588911  0.04291708  0.04294913       0.042
  -0.00714765  0.00714765  0.07156757       0.083
   0.02505390  0.03934919  0.07156757       0.167
   0.05725545  0.07155074  0.07156757       0.083
 
 k-points in reciprocal lattice and weights: Automatic mesh                          
   0.00000000  0.00000000  0.00000000       0.042
   0.25000000  0.00000000  0.00000000       0.083
   0.50000000  0.00000000  0.00000000       0.042
   0.00000000  0.33333333  0.00000000       0.083
   0.25000000  0.33333333  0.00000000       0.167
   0.50000000  0.33333333  0.00000000       0.083
   0.00000000  0.00000000  0.50000000       0.042
   0.25000000 -0.00000000  0.50000000       0.083
   0.50000000 -0.00000000  0.50000000       0.042
   0.00000000  0.33333333  0.50000000       0.083
   0.25000000  0.33333333  0.50000000       0.167
   0.50000000  0.33333333  0.50000000       0.083
 
 position of ions in fractional coordinates (direct lattice) 
   0.50000000  0.33130201  0.84140643
   0.00000000  0.66060051  0.67413847
   0.50000000  0.00409272  0.50204932
   0.00000000  0.33080678  0.32359104
   0.50000000  0.65656836  0.15995151
   0.00000000  0.01520144  0.99826064
   0.50000000  0.49748182  0.49990728
   0.00000000  0.83431968  0.33326718
   0.50000000  0.83435980  0.83352374
   0.00000000  0.16634116  0.66494062
   0.00000000  0.50205112  0.99988516
   0.50000000  0.16381422  0.16821192
   0.00000000  0.67037007  0.17233521
   0.50000000  0.33754204  0.33821403
   0.00000000  0.99638607  0.49700201
   0.50000000  0.66729836  0.66532023
   0.00000000  0.33459051  0.83015979
   0.50000000  0.99625150  0.99551164
   0.74915111  0.66722443  0.41751282
   0.25686192  0.33762772  0.58048971
   0.74468781  0.99511690  0.74988578
   0.25676228  0.67045477  0.91421006
   0.74910363  0.33275228  0.08594039
   0.24394053  0.99713481  0.25312312
   0.75605947  0.99713481  0.25312312
   0.25084889  0.66722443  0.41751282
   0.74313808  0.33762772  0.58048971
   0.25531219  0.99511690  0.74988578
   0.74323772  0.67045477  0.91421006
   0.25089637  0.33275228  0.08594039
 
 position of ions in cartesian coordinates  (Angst):
   3.91869488 -0.03689387  7.81653434
   0.05122490 -0.05122490  7.79685104
   3.87221464  0.00958638  3.91235309
  -0.02862819  0.02862819  3.79578624
   0.01350046  3.86830055  3.79053152
   3.81276046 -3.81276046  7.80663632
   1.94934217  1.93245885  5.81131360
  -1.94494867  1.94494867  5.82577473
   1.93603860  1.94576242  9.70847971
   1.93349258 -1.93349258  5.80650157
   1.92987239 -1.92987239  9.70944023
   1.95763907  1.92416195  1.94152162
  -1.93292661  1.93292661  3.94022806
   1.94285177  1.93894925  3.93542668
  -1.93879217  1.93879217  7.72576319
   1.93193335  1.94986767  7.75441610
   1.92141351 -1.92141351  7.74201548
   1.93609752  1.94570350 11.59423180
   1.93825551  3.87785560  5.83086702
   1.93837060  0.05580314  5.81608902
   1.93767106  3.84378872  9.68349591
   1.94080252  0.05259761  9.69833372
   1.94996684  3.86577565  1.95890542
  -1.94065200  3.83450919  5.83589783
   0.04729183  5.82245301  5.83589783
   0.00394541  1.94354551  5.83086702
   3.82599787  1.94343042  5.81608902
   0.03801229  1.94412996  9.68349591
   3.82920341  1.94099850  9.69833372
   0.01602537  1.93183417  1.95890542
 


--------------------------------------------------------------------------------------------------------


 k-point  1 :   0.0000 0.0000 0.0000  plane waves:    9471
 k-point  2 :   0.2500 0.0000 0.0000  plane waves:    9492
 k-point  3 :   0.5000 0.0000 0.0000  plane waves:    9436
 k-point  4 :   0.0000 0.3333 0.0000  plane waves:    9455
 k-point  5 :   0.2500 0.3333 0.0000  plane waves:    9433
 k-point  6 :   0.5000 0.3333 0.0000  plane waves:    9424
 k-point  7 :   0.0000 0.0000 0.5000  plane waves:    9454
 k-point  8 :   0.2500-0.0000 0.5000  plane waves:    9428
 k-point  9 :   0.5000-0.0000 0.5000  plane waves:    9472
 k-point 10 :   0.0000 0.3333 0.5000  plane waves:    9452
 k-point 11 :   0.2500 0.3333 0.5000  plane waves:    9428
 k-point 12 :   0.5000 0.3333 0.5000  plane waves:    9448

 maximum and minimum number of plane-waves per node :       974      918

 maximum number of plane-waves:      9492
 maximum index in each direction: 
   IXMAX=   10   IYMAX=   12   IZMAX=   17
   IXMIN=  -10   IYMIN=  -12   IZMIN=  -18


 real space projection operators:
  total allocation   :      19163.34 KBytes
  max/ min on nodes  :       2269.78       1719.02


 parallel 3D FFT for wavefunctions:
    minimum data exchange during FFTs selected (reduces bandwidth)
 parallel 3D FFT for charge:
    minimum data exchange during FFTs selected (reduces bandwidth)


 total amount of memory used by VASP MPI-rank0    76606. kBytes
=======================================================================

   base      :      30000. kBytes
   nonlr-proj:       6775. kBytes
   fftplans  :       2897. kBytes
   grid      :       8440. kBytes
   one-center:        294. kBytes
   wavefun   :      28200. kBytes
 
     INWAV:  cpu time    0.0000: real time    0.0000
 Broyden mixing: mesh for mixing (old mesh)
   NGX = 21   NGY = 25   NGZ = 35
  (NGX  = 84   NGY  =100   NGZ  =144)
  gives a total of  18375 points

 initial charge density was supplied:
 charge density of overlapping atoms calculated
 number of electron     225.0000000 magnetization      21.0000000
 keeping initial charge density in first step


--------------------------------------------------------------------------------------------------------


 Maximum index for non-local projection operator         1089
 Maximum index for augmentation-charges         1818 (set IRDMAX)


--------------------------------------------------------------------------------------------------------


 First call to EWALD:  gamma=   0.251
 Maximum number of real-space cells 3x 3x 2
 Maximum number of reciprocal cells 2x 3x 4

    FEWALD:  cpu time    0.0015: real time    0.0015


--------------------------------------- Iteration      1(   1)  ---------------------------------------


    POTLOK:  cpu time    0.0832: real time    0.0858
    SETDIJ:  cpu time    0.0144: real time    0.0152
atom =   1  type =  1  l = 0
 
 onsite density matrix
 
spin component  1
 
  1.0989
 
spin component  2
 
  1.0989
 
 occupancies and eigenvectors
 
  o =  1.0989  v =  1.0000  0.0000      0.0000  0.0000
  o =  1.0989  v =  0.0000  1.0000      0.0000  0.0000
atom =   2  type =  1  l = 0
 
 onsite density matrix
 
spin component  1
 
  1.0989
 
spin component  2
 
  1.0989
 
 occupancies and eigenvectors
 
  o =  1.0989  v =  1.0000  0.0000      0.0000  0.0000
  o =  1.0989  v =  0.0000  1.0000      0.0000  0.0000
atom =   3  type =  1  l = 0
 
 onsite density matrix
 
spin component  1
 
  1.0989
 
spin component  2
 
  1.0989
 
 occupancies and eigenvectors
 
  o =  1.0989  v =  1.0000  0.0000      0.0000  0.0000
  o =  1.0989  v =  0.0000  1.0000      0.0000  0.0000
atom =   4  type =  1  l = 0
 
 onsite density matrix
 
spin component  1
 
  1.0989
 
spin component  2
 
  1.0989
 
 occupancies and eigenvectors
 
  o =  1.0989  v =  1.0000  0.0000      0.0000  0.0000
  o =  1.0989  v =  0.0000  1.0000      0.0000  0.0000
atom =   5  type =  1  l = 0
 
 onsite density matrix
 
spin component  1
 
  1.0989
 
spin component  2
 
  1.0989
 
 occupancies and eigenvectors
 
  o =  1.0989  v =  1.0000  0.0000      0.0000  0.0000
  o =  1.0989  v =  0.0000  1.0000      0.0000  0.0000
atom =   6  type =  1  l = 0
 
 onsite density matrix
 
spin component  1
 
  1.0989
 
spin component  2
 
  1.0989
 
 occupancies and eigenvectors
 
  o =  1.0989  v =  1.0000  0.0000      0.0000  0.0000
  o =  1.0989  v =  0.0000  1.0000      0.0000  0.0000
atom =   7  type =  2  l = 2
 
 onsite density matrix
 
spin component  1
 
  0.8272  0.0000  0.0000  0.0000  0.0000
  0.0000  0.8272  0.0000  0.0000  0.0000
  0.0000  0.0000  0.8272  0.0000  0.0000
  0.0000  0.0000  0.0000  0.8272  0.0000
  0.0000  0.0000  0.0000  0.0000  0.8272
 
spin component  2
 
  0.2256  0.0000  0.0000  0.0000  0.0000
  0.0000  0.2256  0.0000  0.0000  0.0000
  0.0000  0.0000  0.2256  0.0000  0.0000
  0.0000  0.0000  0.0000  0.2256  0.0000
  0.0000  0.0000  0.0000  0.0000  0.2256
 
 occupancies and eigenvectors
 
  o =  0.2256  v =  0.0000  0.0000  0.0000  0.0000  0.0000  0.0000  0.0000  1.0000  0.0000  0.0000      0.0000  0.0000  0.0000  0.0000  0.0000  0.0000  0.0000  0.0000  0.0000  0.0000
  o =  0.2256  v =  0.0000  0.0000  0.0000  0.0000  0.0000  1.0000  0.0000  0.0000  0.0000  0.0000      0.0000  0.0000  0.0000  0.0000  0.0000  0.0000  0.0000  0.0000  0.0000  0.0000
  o =  0.2256  v =  0.0000  0.0000  0.0000  0.0000  0.0000  0.0000  1.0000  0.0000  0.0000  0.0000      0.0000  0.0000  0.0000  0.0000  0.0000  0.0000  0.0000  0.0000  0.0000  0.0000
  o =  0.2256  v =  0.0000  0.0000  0.0000  0.0000  0.0000  0.0000  0.0000  0.0000  1.0000  0.0000      0.0000  0.0000  0.0000  0.0000  0.0000  0.0000  0.0000  0.0000  0.0000  0.0000
  o =  0.2256  v =  0.0000  0.0000  0.0000  0.0000  0.0000  0.0000  0.0000  0.0000  0.0000  1.0000      0.0000  0.0000  0.0000  0.0000  0.0000  0.0000  0.0000  0.0000  0.0000  0.0000
  o =  0.8272  v =  0.0000  1.0000  0.0000  0.0000  0.0000  0.0000  0.0000  0.0000  0.0000  0.0000      0.0000  0.0000  0.0000  0.0000  0.0000  0.0000  0.0000  0.0000  0.0000  0.0000
  o =  0.8272  v =  0.0000  0.0000  1.0000  0.0000  0.0000  0.0000  0.0000  0.0000  0.0000  0.0000      0.0000  0.0000  0.0000  0.0000  0.0000  0.0000  0.0000  0.0000  0.0000  0.0000
  o =  0.8272  v =  1.0000  0.0000  0.0000  0.0000  0.0000  0.0000  0.0000  0.0000  0.0000  0.0000      0.0000  0.0000  0.0000  0.0000  0.0000  0.0000  0.0000  0.0000  0.0000  0.0000
  o =  0.8272  v =  0.0000  0.0000  0.0000  1.0000  0.0000  0.0000  0.0000  0.0000  0.0000  0.0000      0.0000  0.0000  0.0000  0.0000  0.0000  0.0000  0.0000  0.0000  0.0000  0.0000
  o =  0.8272  v =  0.0000  0.0000  0.0000  0.0000  1.0000  0.0000  0.0000  0.0000  0.0000  0.0000      0.0000  0.0000  0.0000  0.0000  0.0000  0.0000  0.0000  0.0000  0.0000  0.0000
atom =   8  type =  2  l = 2
 
 onsite density matrix
 
spin component  1
 
  0.8272  0.0000  0.0000  0.0000  0.0000
  0.0000  0.8272  0.0000  0.0000  0.0000
  0.0000  0.0000  0.8272  0.0000  0.0000
  0.0000  0.0000  0.0000  0.8272  0.0000
  0.0000  0.0000  0.0000  0.0000  0.8272
 
spin component  2
 
  0.2256  0.0000  0.0000  0.0000  0.0000
  0.0000  0.2256  0.0000  0.0000  0.0000
  0.0000  0.0000  0.2256  0.0000  0.0000
  0.0000  0.0000  0.0000  0.2256  0.0000
  0.0000  0.0000  0.0000  0.0000  0.2256
 
 occupancies and eigenvectors
 
  o =  0.2256  v =  0.0000  0.0000  0.0000  0.0000  0.0000  0.0000  0.0000  1.0000  0.0000  0.0000      0.0000  0.0000  0.0000  0.0000  0.0000  0.0000  0.0000  0.0000  0.0000  0.0000
  o =  0.2256  v =  0.0000  0.0000  0.0000  0.0000  0.0000  1.0000  0.0000  0.0000  0.0000  0.0000      0.0000  0.0000  0.0000  0.0000  0.0000  0.0000  0.0000  0.0000  0.0000  0.0000
  o =  0.2256  v =  0.0000  0.0000  0.0000  0.0000  0.0000  0.0000  1.0000  0.0000  0.0000  0.0000      0.0000  0.0000  0.0000  0.0000  0.0000  0.0000  0.0000  0.0000  0.0000  0.0000
  o =  0.2256  v =  0.0000  0.0000  0.0000  0.0000  0.0000  0.0000  0.0000  0.0000  1.0000  0.0000      0.0000  0.0000  0.0000  0.0000  0.0000  0.0000  0.0000  0.0000  0.0000  0.0000
  o =  0.2256  v =  0.0000  0.0000  0.0000  0.0000  0.0000  0.0000  0.0000  0.0000  0.0000  1.0000      0.0000  0.0000  0.0000  0.0000  0.0000  0.0000  0.0000  0.0000  0.0000  0.0000
  o =  0.8272  v =  0.0000  1.0000  0.0000  0.0000  0.0000  0.0000  0.0000  0.0000  0.0000  0.0000      0.0000  0.0000  0.0000  0.0000  0.0000  0.0000  0.0000  0.0000  0.0000  0.0000
  o =  0.8272  v =  0.0000  0.0000  1.0000  0.0000  0.0000  0.0000  0.0000  0.0000  0.0000  0.0000      0.0000  0.0000  0.0000  0.0000  0.0000  0.0000  0.0000  0.0000  0.0000  0.0000
  o =  0.8272  v =  1.0000  0.0000  0.0000  0.0000  0.0000  0.0000  0.0000  0.0000  0.0000  0.0000      0.0000  0.0000  0.0000  0.0000  0.0000  0.0000  0.0000  0.0000  0.0000  0.0000
  o =  0.8272  v =  0.0000  0.0000  0.0000  1.0000  0.0000  0.0000  0.0000  0.0000  0.0000  0.0000      0.0000  0.0000  0.0000  0.0000  0.0000  0.0000  0.0000  0.0000  0.0000  0.0000
  o =  0.8272  v =  0.0000  0.0000  0.0000  0.0000  1.0000  0.0000  0.0000  0.0000  0.0000  0.0000      0.0000  0.0000  0.0000  0.0000  0.0000  0.0000  0.0000  0.0000  0.0000  0.0000
atom =   9  type =  2  l = 2
 
 onsite density matrix
 
spin component  1
 
  0.8272  0.0000  0.0000  0.0000  0.0000
  0.0000  0.8272  0.0000  0.0000  0.0000
  0.0000  0.0000  0.8272  0.0000  0.0000
  0.0000  0.0000  0.0000  0.8272  0.0000
  0.0000  0.0000  0.0000  0.0000  0.8272
 
spin component  2
 
  0.2256  0.0000  0.0000  0.0000  0.0000
  0.0000  0.2256  0.0000  0.0000  0.0000
  0.0000  0.0000  0.2256  0.0000  0.0000
  0.0000  0.0000  0.0000  0.2256  0.0000
  0.0000  0.0000  0.0000  0.0000  0.2256
 
 occupancies and eigenvectors
 
  o =  0.2256  v =  0.0000  0.0000  0.0000  0.0000  0.0000  0.0000  0.0000  1.0000  0.0000  0.0000      0.0000  0.0000  0.0000  0.0000  0.0000  0.0000  0.0000  0.0000  0.0000  0.0000
  o =  0.2256  v =  0.0000  0.0000  0.0000  0.0000  0.0000  1.0000  0.0000  0.0000  0.0000  0.0000      0.0000  0.0000  0.0000  0.0000  0.0000  0.0000  0.0000  0.0000  0.0000  0.0000
  o =  0.2256  v =  0.0000  0.0000  0.0000  0.0000  0.0000  0.0000  1.0000  0.0000  0.0000  0.0000      0.0000  0.0000  0.0000  0.0000  0.0000  0.0000  0.0000  0.0000  0.0000  0.0000
  o =  0.2256  v =  0.0000  0.0000  0.0000  0.0000  0.0000  0.0000  0.0000  0.0000  1.0000  0.0000      0.0000  0.0000  0.0000  0.0000  0.0000  0.0000  0.0000  0.0000  0.0000  0.0000
  o =  0.2256  v =  0.0000  0.0000  0.0000  0.0000  0.0000  0.0000  0.0000  0.0000  0.0000  1.0000      0.0000  0.0000  0.0000  0.0000  0.0000  0.0000  0.0000  0.0000  0.0000  0.0000
  o =  0.8272  v =  0.0000  1.0000  0.0000  0.0000  0.0000  0.0000  0.0000  0.0000  0.0000  0.0000      0.0000  0.0000  0.0000  0.0000  0.0000  0.0000  0.0000  0.0000  0.0000  0.0000
  o =  0.8272  v =  0.0000  0.0000  1.0000  0.0000  0.0000  0.0000  0.0000  0.0000  0.0000  0.0000      0.0000  0.0000  0.0000  0.0000  0.0000  0.0000  0.0000  0.0000  0.0000  0.0000
  o =  0.8272  v =  1.0000  0.0000  0.0000  0.0000  0.0000  0.0000  0.0000  0.0000  0.0000  0.0000      0.0000  0.0000  0.0000  0.0000  0.0000  0.0000  0.0000  0.0000  0.0000  0.0000
  o =  0.8272  v =  0.0000  0.0000  0.0000  1.0000  0.0000  0.0000  0.0000  0.0000  0.0000  0.0000      0.0000  0.0000  0.0000  0.0000  0.0000  0.0000  0.0000  0.0000  0.0000  0.0000
  o =  0.8272  v =  0.0000  0.0000  0.0000  0.0000  1.0000  0.0000  0.0000  0.0000  0.0000  0.0000      0.0000  0.0000  0.0000  0.0000  0.0000  0.0000  0.0000  0.0000  0.0000  0.0000
atom =  10  type =  3  l = 2
 
 onsite density matrix
 
spin component  1
 
  1.1008  0.0000  0.0000  0.0000  0.0000
  0.0000  1.1008  0.0000  0.0000  0.0000
  0.0000  0.0000  1.1008  0.0000  0.0000
  0.0000  0.0000  0.0000  1.1008  0.0000
  0.0000  0.0000  0.0000  0.0000  1.1008
 
spin component  2
 
  0.5927  0.0000  0.0000  0.0000  0.0000
  0.0000  0.5927  0.0000  0.0000  0.0000
  0.0000  0.0000  0.5927  0.0000  0.0000
  0.0000  0.0000  0.0000  0.5927  0.0000
  0.0000  0.0000  0.0000  0.0000  0.5927
 
 occupancies and eigenvectors
 
  o =  0.5927  v =  0.0000  0.0000  0.0000  0.0000  0.0000  1.0000  0.0000  0.0000  0.0000  0.0000      0.0000  0.0000  0.0000  0.0000  0.0000  0.0000  0.0000  0.0000  0.0000  0.0000
  o =  0.5927  v =  0.0000  0.0000  0.0000  0.0000  0.0000  0.0000  1.0000  0.0000  0.0000  0.0000      0.0000  0.0000  0.0000  0.0000  0.0000  0.0000  0.0000  0.0000  0.0000  0.0000
  o =  0.5927  v =  0.0000  0.0000  0.0000  0.0000  0.0000  0.0000  0.0000  1.0000  0.0000  0.0000      0.0000  0.0000  0.0000  0.0000  0.0000  0.0000  0.0000  0.0000  0.0000  0.0000
  o =  0.5927  v =  0.0000  0.0000  0.0000  0.0000  0.0000  0.0000  0.0000  0.0000  1.0000  0.0000      0.0000  0.0000  0.0000  0.0000  0.0000  0.0000  0.0000  0.0000  0.0000  0.0000
  o =  0.5927  v =  0.0000  0.0000  0.0000  0.0000  0.0000  0.0000  0.0000  0.0000  0.0000  1.0000      0.0000  0.0000  0.0000  0.0000  0.0000  0.0000  0.0000  0.0000  0.0000  0.0000
  o =  1.1008  v =  1.0000  0.0000  0.0000  0.0000  0.0000  0.0000  0.0000  0.0000  0.0000  0.0000      0.0000  0.0000  0.0000  0.0000  0.0000  0.0000  0.0000  0.0000  0.0000  0.0000
  o =  1.1008  v =  0.0000  1.0000  0.0000  0.0000  0.0000  0.0000  0.0000  0.0000  0.0000  0.0000      0.0000  0.0000  0.0000  0.0000  0.0000  0.0000  0.0000  0.0000  0.0000  0.0000
  o =  1.1008  v =  0.0000  0.0000  1.0000  0.0000  0.0000  0.0000  0.0000  0.0000  0.0000  0.0000      0.0000  0.0000  0.0000  0.0000  0.0000  0.0000  0.0000  0.0000  0.0000  0.0000
  o =  1.1008  v =  0.0000  0.0000  0.0000  1.0000  0.0000  0.0000  0.0000  0.0000  0.0000  0.0000      0.0000  0.0000  0.0000  0.0000  0.0000  0.0000  0.0000  0.0000  0.0000  0.0000
  o =  1.1008  v =  0.0000  0.0000  0.0000  0.0000  1.0000  0.0000  0.0000  0.0000  0.0000  0.0000      0.0000  0.0000  0.0000  0.0000  0.0000  0.0000  0.0000  0.0000  0.0000  0.0000
atom =  11  type =  3  l = 2
 
 onsite density matrix
 
spin component  1
 
  1.1008  0.0000  0.0000  0.0000  0.0000
  0.0000  1.1008  0.0000  0.0000  0.0000
  0.0000  0.0000  1.1008  0.0000  0.0000
  0.0000  0.0000  0.0000  1.1008  0.0000
  0.0000  0.0000  0.0000  0.0000  1.1008
 
spin component  2
 
  0.5927  0.0000  0.0000  0.0000  0.0000
  0.0000  0.5927  0.0000  0.0000  0.0000
  0.0000  0.0000  0.5927  0.0000  0.0000
  0.0000  0.0000  0.0000  0.5927  0.0000
  0.0000  0.0000  0.0000  0.0000  0.5927
 
 occupancies and eigenvectors
 
  o =  0.5927  v =  0.0000  0.0000  0.0000  0.0000  0.0000  1.0000  0.0000  0.0000  0.0000  0.0000      0.0000  0.0000  0.0000  0.0000  0.0000  0.0000  0.0000  0.0000  0.0000  0.0000
  o =  0.5927  v =  0.0000  0.0000  0.0000  0.0000  0.0000  0.0000  1.0000  0.0000  0.0000  0.0000      0.0000  0.0000  0.0000  0.0000  0.0000  0.0000  0.0000  0.0000  0.0000  0.0000
  o =  0.5927  v =  0.0000  0.0000  0.0000  0.0000  0.0000  0.0000  0.0000  1.0000  0.0000  0.0000      0.0000  0.0000  0.0000  0.0000  0.0000  0.0000  0.0000  0.0000  0.0000  0.0000
  o =  0.5927  v =  0.0000  0.0000  0.0000  0.0000  0.0000  0.0000  0.0000  0.0000  1.0000  0.0000      0.0000  0.0000  0.0000  0.0000  0.0000  0.0000  0.0000  0.0000  0.0000  0.0000
  o =  0.5927  v =  0.0000  0.0000  0.0000  0.0000  0.0000  0.0000  0.0000  0.0000  0.0000  1.0000      0.0000  0.0000  0.0000  0.0000  0.0000  0.0000  0.0000  0.0000  0.0000  0.0000
  o =  1.1008  v =  1.0000  0.0000  0.0000  0.0000  0.0000  0.0000  0.0000  0.0000  0.0000  0.0000      0.0000  0.0000  0.0000  0.0000  0.0000  0.0000  0.0000  0.0000  0.0000  0.0000
  o =  1.1008  v =  0.0000  1.0000  0.0000  0.0000  0.0000  0.0000  0.0000  0.0000  0.0000  0.0000      0.0000  0.0000  0.0000  0.0000  0.0000  0.0000  0.0000  0.0000  0.0000  0.0000
  o =  1.1008  v =  0.0000  0.0000  1.0000  0.0000  0.0000  0.0000  0.0000  0.0000  0.0000  0.0000      0.0000  0.0000  0.0000  0.0000  0.0000  0.0000  0.0000  0.0000  0.0000  0.0000
  o =  1.1008  v =  0.0000  0.0000  0.0000  1.0000  0.0000  0.0000  0.0000  0.0000  0.0000  0.0000      0.0000  0.0000  0.0000  0.0000  0.0000  0.0000  0.0000  0.0000  0.0000  0.0000
  o =  1.1008  v =  0.0000  0.0000  0.0000  0.0000  1.0000  0.0000  0.0000  0.0000  0.0000  0.0000      0.0000  0.0000  0.0000  0.0000  0.0000  0.0000  0.0000  0.0000  0.0000  0.0000
atom =  12  type =  3  l = 2
 
 onsite density matrix
 
spin component  1
 
  1.1008  0.0000  0.0000  0.0000  0.0000
  0.0000  1.1008  0.0000  0.0000  0.0000
  0.0000  0.0000  1.1008  0.0000  0.0000
  0.0000  0.0000  0.0000  1.1008  0.0000
  0.0000  0.0000  0.0000  0.0000  1.1008
 
spin component  2
 
  0.5927  0.0000  0.0000  0.0000  0.0000
  0.0000  0.5927  0.0000  0.0000  0.0000
  0.0000  0.0000  0.5927  0.0000  0.0000
  0.0000  0.0000  0.0000  0.5927  0.0000
  0.0000  0.0000  0.0000  0.0000  0.5927
 
 occupancies and eigenvectors
 
  o =  0.5927  v =  0.0000  0.0000  0.0000  0.0000  0.0000  1.0000  0.0000  0.0000  0.0000  0.0000      0.0000  0.0000  0.0000  0.0000  0.0000  0.0000  0.0000  0.0000  0.0000  0.0000
  o =  0.5927  v =  0.0000  0.0000  0.0000  0.0000  0.0000  0.0000  1.0000  0.0000  0.0000  0.0000      0.0000  0.0000  0.0000  0.0000  0.0000  0.0000  0.0000  0.0000  0.0000  0.0000
  o =  0.5927  v =  0.0000  0.0000  0.0000  0.0000  0.0000  0.0000  0.0000  1.0000  0.0000  0.0000      0.0000  0.0000  0.0000  0.0000  0.0000  0.0000  0.0000  0.0000  0.0000  0.0000
  o =  0.5927  v =  0.0000  0.0000  0.0000  0.0000  0.0000  0.0000  0.0000  0.0000  1.0000  0.0000      0.0000  0.0000  0.0000  0.0000  0.0000  0.0000  0.0000  0.0000  0.0000  0.0000
  o =  0.5927  v =  0.0000  0.0000  0.0000  0.0000  0.0000  0.0000  0.0000  0.0000  0.0000  1.0000      0.0000  0.0000  0.0000  0.0000  0.0000  0.0000  0.0000  0.0000  0.0000  0.0000
  o =  1.1008  v =  1.0000  0.0000  0.0000  0.0000  0.0000  0.0000  0.0000  0.0000  0.0000  0.0000      0.0000  0.0000  0.0000  0.0000  0.0000  0.0000  0.0000  0.0000  0.0000  0.0000
  o =  1.1008  v =  0.0000  1.0000  0.0000  0.0000  0.0000  0.0000  0.0000  0.0000  0.0000  0.0000      0.0000  0.0000  0.0000  0.0000  0.0000  0.0000  0.0000  0.0000  0.0000  0.0000
  o =  1.1008  v =  0.0000  0.0000  1.0000  0.0000  0.0000  0.0000  0.0000  0.0000  0.0000  0.0000      0.0000  0.0000  0.0000  0.0000  0.0000  0.0000  0.0000  0.0000  0.0000  0.0000
  o =  1.1008  v =  0.0000  0.0000  0.0000  1.0000  0.0000  0.0000  0.0000  0.0000  0.0000  0.0000      0.0000  0.0000  0.0000  0.0000  0.0000  0.0000  0.0000  0.0000  0.0000  0.0000
  o =  1.1008  v =  0.0000  0.0000  0.0000  0.0000  1.0000  0.0000  0.0000  0.0000  0.0000  0.0000      0.0000  0.0000  0.0000  0.0000  0.0000  0.0000  0.0000  0.0000  0.0000  0.0000
atom =  13  type =  4  l = 0
 
 onsite density matrix
 
spin component  1
 
  0.8190
 
spin component  2
 
  0.8190
 
 occupancies and eigenvectors
 
  o =  0.8190  v =  1.0000  0.0000      0.0000  0.0000
  o =  0.8190  v =  0.0000  1.0000      0.0000  0.0000
atom =  14  type =  4  l = 0
 
 onsite density matrix
 
spin component  1
 
  0.8190
 
spin component  2
 
  0.8190
 
 occupancies and eigenvectors
 
  o =  0.8190  v =  1.0000  0.0000      0.0000  0.0000
  o =  0.8190  v =  0.0000  1.0000      0.0000  0.0000
atom =  15  type =  4  l = 0
 
 onsite density matrix
 
spin component  1
 
  0.8190
 
spin component  2
 
  0.8190
 
 occupancies and eigenvectors
 
  o =  0.8190  v =  1.0000  0.0000      0.0000  0.0000
  o =  0.8190  v =  0.0000  1.0000      0.0000  0.0000
atom =  16  type =  4  l = 0
 
 onsite density matrix
 
spin component  1
 
  0.8190
 
spin component  2
 
  0.8190
 
 occupancies and eigenvectors
 
  o =  0.8190  v =  1.0000  0.0000      0.0000  0.0000
  o =  0.8190  v =  0.0000  1.0000      0.0000  0.0000
atom =  17  type =  4  l = 0
 
 onsite density matrix
 
spin component  1
 
  0.8190
 
spin component  2
 
  0.8190
 
 occupancies and eigenvectors
 
  o =  0.8190  v =  1.0000  0.0000      0.0000  0.0000
  o =  0.8190  v =  0.0000  1.0000      0.0000  0.0000
atom =  18  type =  4  l = 0
 
 onsite density matrix
 
spin component  1
 
  0.8190
 
spin component  2
 
  0.8190
 
 occupancies and eigenvectors
 
  o =  0.8190  v =  1.0000  0.0000      0.0000  0.0000
  o =  0.8190  v =  0.0000  1.0000      0.0000  0.0000
atom =  19  type =  4  l = 0
 
 onsite density matrix
 
spin component  1
 
  0.8190
 
spin component  2
 
  0.8190
 
 occupancies and eigenvectors
 
  o =  0.8190  v =  1.0000  0.0000      0.0000  0.0000
  o =  0.8190  v =  0.0000  1.0000      0.0000  0.0000
atom =  20  type =  4  l = 0
 
 onsite density matrix
 
spin component  1
 
  0.8190
 
spin component  2
 
  0.8190
 
 occupancies and eigenvectors
 
  o =  0.8190  v =  1.0000  0.0000      0.0000  0.0000
  o =  0.8190  v =  0.0000  1.0000      0.0000  0.0000
atom =  21  type =  4  l = 0
 
 onsite density matrix
 
spin component  1
 
  0.8190
 
spin component  2
 
  0.8190
 
 occupancies and eigenvectors
 
  o =  0.8190  v =  1.0000  0.0000      0.0000  0.0000
  o =  0.8190  v =  0.0000  1.0000      0.0000  0.0000
atom =  22  type =  4  l = 0
 
 onsite density matrix
 
spin component  1
 
  0.8190
 
spin component  2
 
  0.8190
 
 occupancies and eigenvectors
 
  o =  0.8190  v =  1.0000  0.0000      0.0000  0.0000
  o =  0.8190  v =  0.0000  1.0000      0.0000  0.0000
atom =  23  type =  4  l = 0
 
 onsite density matrix
 
spin component  1
 
  0.8190
 
spin component  2
 
  0.8190
 
 occupancies and eigenvectors
 
  o =  0.8190  v =  1.0000  0.0000      0.0000  0.0000
  o =  0.8190  v =  0.0000  1.0000      0.0000  0.0000
atom =  24  type =  4  l = 0
 
 onsite density matrix
 
spin component  1
 
  0.8190
 
spin component  2
 
  0.8190
 
 occupancies and eigenvectors
 
  o =  0.8190  v =  1.0000  0.0000      0.0000  0.0000
  o =  0.8190  v =  0.0000  1.0000      0.0000  0.0000
atom =  25  type =  4  l = 0
 
 onsite density matrix
 
spin component  1
 
  0.8190
 
spin component  2
 
  0.8190
 
 occupancies and eigenvectors
 
  o =  0.8190  v =  1.0000  0.0000      0.0000  0.0000
  o =  0.8190  v =  0.0000  1.0000      0.0000  0.0000
atom =  26  type =  4  l = 0
 
 onsite density matrix
 
spin component  1
 
  0.8190
 
spin component  2
 
  0.8190
 
 occupancies and eigenvectors
 
  o =  0.8190  v =  1.0000  0.0000      0.0000  0.0000
  o =  0.8190  v =  0.0000  1.0000      0.0000  0.0000
atom =  27  type =  4  l = 0
 
 onsite density matrix
 
spin component  1
 
  0.8190
 
spin component  2
 
  0.8190
 
 occupancies and eigenvectors
 
  o =  0.8190  v =  1.0000  0.0000      0.0000  0.0000
  o =  0.8190  v =  0.0000  1.0000      0.0000  0.0000
atom =  28  type =  4  l = 0
 
 onsite density matrix
 
spin component  1
 
  0.8190
 
spin component  2
 
  0.8190
 
 occupancies and eigenvectors
 
  o =  0.8190  v =  1.0000  0.0000      0.0000  0.0000
  o =  0.8190  v =  0.0000  1.0000      0.0000  0.0000
atom =  29  type =  4  l = 0
 
 onsite density matrix
 
spin component  1
 
  0.8190
 
spin component  2
 
  0.8190
 
 occupancies and eigenvectors
 
  o =  0.8190  v =  1.0000  0.0000      0.0000  0.0000
  o =  0.8190  v =  0.0000  1.0000      0.0000  0.0000
atom =  30  type =  4  l = 0
 
 onsite density matrix
 
spin component  1
 
  0.8190
 
spin component  2
 
  0.8190
 
 occupancies and eigenvectors
 
  o =  0.8190  v =  1.0000  0.0000      0.0000  0.0000
  o =  0.8190  v =  0.0000  1.0000      0.0000  0.0000
     EDDAV:  cpu time    4.1943: real time    4.2202
 BZINTS: Fermi energy: 31.902611;225.000000 electrons
         Band energy:3390.048957;  BLOECHL correction: -0.222078
       DOS:  cpu time    0.0368: real time    0.0373
    --------------------------------------------
      LOOP:  cpu time    4.3288: real time    4.3585

 eigenvalue-minimisations  :  7514
 total energy-change (2. order) : 0.3581242E+04  (-0.7851798E+04)
 number of electron     225.0000000 magnetization      21.0000000
 augmentation part      225.0000000 magnetization      21.0000000

 Free energy of the ion-electron system (eV)
  ---------------------------------------------------
  alpha Z        PSCENC =       984.63751185
  Ewald energy   TEWEN  =    -15516.14456235
  -Hartree energ DENC   =     -3403.23712927
  -exchange      EXHF   =         0.00000000
  -V(xc)+E(xc)   XCENC  =       754.26265678
  PAW double counting   =     14201.63522633   -14291.52419254
  entropy T*S    EENTRO =         0.00000000
  eigenvalues    EBANDS =      3390.04895679
  atomic energy  EATOM  =     17461.56381371
  Solvation  Ediel_sol  =         0.00000000
  ---------------------------------------------------
  free energy    TOTEN  =      3581.24228130 eV

  energy without entropy =     3581.24228130  energy(sigma->0) =     3581.24228130


--------------------------------------------------------------------------------------------------------




--------------------------------------- Iteration      1(   2)  ---------------------------------------


     EDDAV:  cpu time    4.2744: real time    4.2953
 BZINTS: Fermi energy: 16.567700;225.000000 electrons
         Band energy:1055.825883;  BLOECHL correction: -0.026288
       DOS:  cpu time    0.0356: real time    0.0357
    --------------------------------------------
      LOOP:  cpu time    4.3100: real time    4.3310

 eigenvalue-minimisations  :  7792
 total energy-change (2. order) :-0.2334223E+04  (-0.2101907E+04)
 number of electron     225.0000000 magnetization      21.0000000
 augmentation part      225.0000000 magnetization      21.0000000

 Free energy of the ion-electron system (eV)
  ---------------------------------------------------
  alpha Z        PSCENC =       984.63751185
  Ewald energy   TEWEN  =    -15516.14456235
  -Hartree energ DENC   =     -3403.23712927
  -exchange      EXHF   =         0.00000000
  -V(xc)+E(xc)   XCENC  =       754.26265678
  PAW double counting   =     14201.63522633   -14291.52419254
  entropy T*S    EENTRO =         0.00000000
  eigenvalues    EBANDS =      1055.82588257
  atomic energy  EATOM  =     17461.56381371
  Solvation  Ediel_sol  =         0.00000000
  ---------------------------------------------------
  free energy    TOTEN  =      1247.01920707 eV

  energy without entropy =     1247.01920707  energy(sigma->0) =     1247.01920707


--------------------------------------------------------------------------------------------------------




--------------------------------------- Iteration      1(   3)  ---------------------------------------


     EDDAV:  cpu time    4.2936: real time    4.3184
 BZINTS: Fermi energy: 12.262421;225.000000 electrons
         Band energy:  82.164861;  BLOECHL correction: -0.034305
       DOS:  cpu time    0.0351: real time    0.0351
    --------------------------------------------
      LOOP:  cpu time    4.3287: real time    4.3535

 eigenvalue-minimisations  :  7800
 total energy-change (2. order) :-0.9736610E+03  (-0.8722140E+03)
 number of electron     225.0000000 magnetization      21.0000000
 augmentation part      225.0000000 magnetization      21.0000000

 Free energy of the ion-electron system (eV)
  ---------------------------------------------------
  alpha Z        PSCENC =       984.63751185
  Ewald energy   TEWEN  =    -15516.14456235
  -Hartree energ DENC   =     -3403.23712927
  -exchange      EXHF   =         0.00000000
  -V(xc)+E(xc)   XCENC  =       754.26265678
  PAW double counting   =     14201.63522633   -14291.52419254
  entropy T*S    EENTRO =         0.00000000
  eigenvalues    EBANDS =        82.16486131
  atomic energy  EATOM  =     17461.56381371
  Solvation  Ediel_sol  =         0.00000000
  ---------------------------------------------------
  free energy    TOTEN  =       273.35818582 eV

  energy without entropy =      273.35818582  energy(sigma->0) =      273.35818582


--------------------------------------------------------------------------------------------------------




--------------------------------------- Iteration      1(   4)  ---------------------------------------


     EDDAV:  cpu time    5.7570: real time    5.7879
 BZINTS: Fermi energy: 11.587030;225.000000 electrons
         Band energy:-349.438437;  BLOECHL correction: -0.007173
       DOS:  cpu time    0.0366: real time    0.0368
    --------------------------------------------
      LOOP:  cpu time    5.7936: real time    5.8247

 eigenvalue-minimisations  : 11176
 total energy-change (2. order) :-0.4316033E+03  (-0.4066213E+03)
 number of electron     225.0000000 magnetization      21.0000000
 augmentation part      225.0000000 magnetization      21.0000000

 Free energy of the ion-electron system (eV)
  ---------------------------------------------------
  alpha Z        PSCENC =       984.63751185
  Ewald energy   TEWEN  =    -15516.14456235
  -Hartree energ DENC   =     -3403.23712927
  -exchange      EXHF   =         0.00000000
  -V(xc)+E(xc)   XCENC  =       754.26265678
  PAW double counting   =     14201.63522633   -14291.52419254
  entropy T*S    EENTRO =         0.00000000
  eigenvalues    EBANDS =      -349.43843676
  atomic energy  EATOM  =     17461.56381371
  Solvation  Ediel_sol  =         0.00000000
  ---------------------------------------------------
  free energy    TOTEN  =      -158.24511226 eV

  energy without entropy =     -158.24511226  energy(sigma->0) =     -158.24511226


--------------------------------------------------------------------------------------------------------




--------------------------------------- Iteration      1(   5)  ---------------------------------------


     EDDAV:  cpu time    6.4843: real time    6.5118
 BZINTS: Fermi energy: 11.133701;225.000000 electrons
         Band energy:-440.501965;  BLOECHL correction: -0.037148
       DOS:  cpu time    0.0379: real time    0.0380
    CHARGE:  cpu time    0.1780: real time    0.1786
    MIXING:  cpu time    0.0032: real time    0.0033
    --------------------------------------------
      LOOP:  cpu time    6.7034: real time    6.7317

 eigenvalue-minimisations  : 12800
 total energy-change (2. order) :-0.9106353E+02  (-0.8749798E+02)
 number of electron     225.0000009 magnetization      18.3643643
 augmentation part       28.6374362 magnetization      13.6299730

 Broyden mixing:
  rms(total) = 0.75007E+01    rms(broyden)= 0.75002E+01
  rms(prec ) = 0.87223E+01
  weight for this iteration     100.00

 Free energy of the ion-electron system (eV)
  ---------------------------------------------------
  alpha Z        PSCENC =       984.63751185
  Ewald energy   TEWEN  =    -15516.14456235
  -Hartree energ DENC   =     -3403.23712927
  -exchange      EXHF   =         0.00000000
  -V(xc)+E(xc)   XCENC  =       754.26265678
  PAW double counting   =     14201.63522633   -14291.52419254
  entropy T*S    EENTRO =         0.00000000
  eigenvalues    EBANDS =      -440.50196475
  atomic energy  EATOM  =     17461.56381371
  Solvation  Ediel_sol  =         0.00000000
  ---------------------------------------------------
  free energy    TOTEN  =      -249.30864025 eV

  energy without entropy =     -249.30864025  energy(sigma->0) =     -249.30864025


--------------------------------------------------------------------------------------------------------




--------------------------------------- Iteration      1(   6)  ---------------------------------------


    POTLOK:  cpu time    0.0785: real time    0.0799
    SETDIJ:  cpu time    0.0134: real time    0.0135
atom =   1  type =  1  l = 0
 
 onsite density matrix
 
spin component  1
 
  1.0559
 
spin component  2
 
  1.0565
 
 occupancies and eigenvectors
 
  o =  1.0559  v =  1.0000  0.0000      0.0000  0.0000
  o =  1.0565  v =  0.0000  1.0000      0.0000  0.0000
atom =   2  type =  1  l = 0
 
 onsite density matrix
 
spin component  1
 
  1.0562
 
spin component  2
 
  1.0562
 
 occupancies and eigenvectors
 
  o =  1.0562  v =  0.0000  1.0000      0.0000  0.0000
  o =  1.0562  v =  1.0000  0.0000      0.0000  0.0000
atom =   3  type =  1  l = 0
 
 onsite density matrix
 
spin component  1
 
  1.0559
 
spin component  2
 
  1.0565
 
 occupancies and eigenvectors
 
  o =  1.0559  v =  1.0000  0.0000      0.0000  0.0000
  o =  1.0565  v =  0.0000  1.0000      0.0000  0.0000
atom =   4  type =  1  l = 0
 
 onsite density matrix
 
spin component  1
 
  1.0559
 
spin component  2
 
  1.0568
 
 occupancies and eigenvectors
 
  o =  1.0559  v =  1.0000  0.0000      0.0000  0.0000
  o =  1.0568  v =  0.0000  1.0000      0.0000  0.0000
atom =   5  type =  1  l = 0
 
 onsite density matrix
 
spin component  1
 
  1.0559
 
spin component  2
 
  1.0564
 
 occupancies and eigenvectors
 
  o =  1.0559  v =  1.0000  0.0000      0.0000  0.0000
  o =  1.0564  v =  0.0000  1.0000      0.0000  0.0000
atom =   6  type =  1  l = 0
 
 onsite density matrix
 
spin component  1
 
  1.0575
 
spin component  2
 
  1.0573
 
 occupancies and eigenvectors
 
  o =  1.0573  v =  0.0000  1.0000      0.0000  0.0000
  o =  1.0575  v =  1.0000  0.0000      0.0000  0.0000
atom =   7  type =  2  l = 2
 
 onsite density matrix
 
spin component  1
 
  0.9479  0.0017 -0.0023 -0.0017  0.0000
  0.0017  0.9463  0.0052  0.0006  0.0037
 -0.0023  0.0052  0.3284 -0.0052  0.0000
 -0.0017  0.0006 -0.0052  0.9463  0.0037
  0.0000  0.0037  0.0000  0.0037  0.3325
 
spin component  2
 
  0.0391 -0.0013  0.0015  0.0013  0.0000
 -0.0013  0.0400 -0.0031 -0.0008 -0.0023
  0.0015 -0.0031  0.4671  0.0031  0.0000
  0.0013 -0.0008  0.0031  0.0400 -0.0023
  0.0000 -0.0023  0.0000 -0.0023  0.4647
 
 occupancies and eigenvectors
 
  o =  0.0379  v =  0.0000  0.0000  0.0000  0.0000  0.0000 -0.8331 -0.3911 -0.0027  0.3911 -0.0000      0.0000  0.0000  0.0000  0.0000  0.0000  0.0000  0.0000  0.0000  0.0000  0.0000
  o =  0.0392  v =  0.0000  0.0000  0.0000  0.0000  0.0000 -0.0000  0.7071 -0.0000  0.7071  0.0075      0.0000  0.0000  0.0000  0.0000  0.0000  0.0000  0.0000  0.0000  0.0000  0.0000
  o =  0.0419  v =  0.0000  0.0000  0.0000  0.0000  0.0000 -0.5531  0.5891  0.0105 -0.5891 -0.0000      0.0000  0.0000  0.0000  0.0000  0.0000  0.0000  0.0000  0.0000  0.0000  0.0000
  o =  0.3283  v =  0.0038 -0.0084  0.9999  0.0084 -0.0000  0.0000  0.0000  0.0000  0.0000  0.0000      0.0000  0.0000  0.0000  0.0000  0.0000  0.0000  0.0000  0.0000  0.0000  0.0000
  o =  0.3325  v =  0.0000 -0.0061  0.0000 -0.0061  1.0000  0.0000  0.0000  0.0000  0.0000  0.0000      0.0000  0.0000  0.0000  0.0000  0.0000  0.0000  0.0000  0.0000  0.0000  0.0000
  o =  0.4647  v =  0.0000  0.0000  0.0000  0.0000  0.0000  0.0000 -0.0053  0.0000 -0.0053  1.0000      0.0000  0.0000  0.0000  0.0000  0.0000  0.0000  0.0000  0.0000  0.0000  0.0000
  o =  0.4672  v =  0.0000  0.0000  0.0000  0.0000  0.0000 -0.0036  0.0072 -0.9999 -0.0072  0.0000      0.0000  0.0000  0.0000  0.0000  0.0000  0.0000  0.0000  0.0000  0.0000  0.0000
  o =  0.9442  v =  0.5387 -0.5957 -0.0120  0.5957 -0.0000  0.0000  0.0000  0.0000  0.0000  0.0000      0.0000  0.0000  0.0000  0.0000  0.0000  0.0000  0.0000  0.0000  0.0000  0.0000
  o =  0.9469  v = -0.0000 -0.7071  0.0000 -0.7071 -0.0086  0.0000  0.0000  0.0000  0.0000  0.0000      0.0000  0.0000  0.0000  0.0000  0.0000  0.0000  0.0000  0.0000  0.0000  0.0000
  o =  0.9495  v =  0.8425  0.3809  0.0032 -0.3809 -0.0000  0.0000  0.0000  0.0000  0.0000  0.0000      0.0000  0.0000  0.0000  0.0000  0.0000  0.0000  0.0000  0.0000  0.0000  0.0000
atom =   8  type =  2  l = 2
 
 onsite density matrix
 
spin component  1
 
  0.9304  0.0068 -0.0106 -0.0068  0.0000
  0.0068  0.9425 -0.0071  0.0006 -0.0068
 -0.0106 -0.0071  0.3399  0.0071  0.0000
 -0.0068  0.0006  0.0071  0.9425 -0.0068
  0.0000 -0.0068  0.0000 -0.0068  0.3265
 
spin component  2
 
  0.0479 -0.0046  0.0061  0.0046  0.0000
 -0.0046  0.0438  0.0041 -0.0001  0.0039
  0.0061  0.0041  0.4622 -0.0041  0.0000
  0.0046 -0.0001 -0.0041  0.0438  0.0039
  0.0000  0.0039  0.0000  0.0039  0.4656
 
 occupancies and eigenvectors
 
  o =  0.0390  v =  0.0000  0.0000  0.0000  0.0000  0.0000 -0.5955 -0.5679  0.0195  0.5679 -0.0000      0.0000  0.0000  0.0000  0.0000  0.0000  0.0000  0.0000  0.0000  0.0000  0.0000
  o =  0.0436  v =  0.0000  0.0000  0.0000  0.0000  0.0000  0.0000  0.7070 -0.0000  0.7070 -0.0132      0.0000  0.0000  0.0000  0.0000  0.0000  0.0000  0.0000  0.0000  0.0000  0.0000
  o =  0.0527  v =  0.0000  0.0000  0.0000  0.0000  0.0000  0.8032 -0.4212 -0.0036  0.4212  0.0000      0.0000  0.0000  0.0000  0.0000  0.0000  0.0000  0.0000  0.0000  0.0000  0.0000
  o =  0.3263  v = -0.0000  0.0111 -0.0000  0.0111  0.9999  0.0000  0.0000  0.0000  0.0000  0.0000      0.0000  0.0000  0.0000  0.0000  0.0000  0.0000  0.0000  0.0000  0.0000  0.0000
[...]
  0.000   0.001   0.000  -0.000  -0.000  -0.000  -0.001   0.000  -0.000  -0.001   0.001   0.001   0.000   0.000   0.000  -0.000
  0.000   0.001  -0.000   0.000  -0.000  -0.000  -0.000   0.000   0.000   0.001   0.001  -0.000   0.000  -0.000  -0.000  -0.000
  0.000   0.000   0.000   0.000   0.000   0.000   0.000   0.000   0.000   0.001   0.000   0.001   0.002   0.000  -0.000   0.000
 -0.000   0.001  -0.000   0.000  -0.000   0.000   0.000  -0.000  -0.000  -0.000   0.001   0.001   0.001   0.000   0.000  -0.000
  0.000  -0.002   0.000   0.000  -0.000  -0.001  -0.000  -0.000   0.000   0.002  -0.001   0.000   0.001  -0.000  -0.001   0.000
  0.000  -0.003  -0.000  -0.001   0.000   0.001   0.001  -0.001   0.001   0.002  -0.000  -0.002   0.000  -0.000  -0.001   0.000
  0.000   0.001   0.000   0.000  -0.000  -0.000   0.000   0.001   0.000  -0.000   0.003  -0.001  -0.000  -0.000   0.000  -0.001
  0.000  -0.001  -0.000  -0.000   0.000   0.000   0.001  -0.000  -0.000   0.002  -0.002  -0.002   0.000  -0.000  -0.001   0.001
 -0.000  -0.001  -0.000  -0.000   0.000   0.001  -0.000  -0.000  -0.000  -0.001  -0.003  -0.000  -0.000   0.000   0.000   0.001
  0.000   0.000   0.000   0.000   0.000  -0.000   0.000  -0.000   0.000  -0.002   0.000  -0.002  -0.004   0.000   0.001   0.000
  0.000  -0.002   0.000   0.000  -0.000   0.000  -0.000   0.001   0.000  -0.000  -0.001  -0.002  -0.001  -0.000   0.000   0.000


------------------------ aborting loop because EDIFF is reached ----------------------------------------


 


 total charge     
 
# of ion       s       p       d       f       tot
--------------------------------------------------
    1        2.000   5.697   0.493   0.190   8.380
    2        2.000   5.700   0.491   0.192   8.382
    3        1.999   5.700   0.489   0.192   8.380
    4        2.000   5.699   0.498   0.194   8.391
    5        2.000   5.698   0.490   0.191   8.379
    6        2.000   5.697   0.489   0.189   8.375
    7        0.353   0.557   4.862   0.000   5.773
    8        0.353   0.562   4.855   0.000   5.770
    9        0.360   0.581   4.866   0.000   5.807
   10        0.388   0.555   8.317   0.000   9.261
   11        0.392   0.565   8.334   0.000   9.290
   12        0.396   0.571   8.330   0.000   9.298
   13        1.562   3.455   0.000   0.000   5.017
   14        1.564   3.454   0.000   0.000   5.018
   15        1.560   3.457   0.000   0.000   5.017
   16        1.561   3.468   0.000   0.000   5.030
   17        1.555   3.457   0.000   0.000   5.012
   18        1.563   3.454   0.000   0.000   5.017
   19        1.562   3.463   0.000   0.000   5.024
   20        1.564   3.449   0.000   0.000   5.013
   21        1.562   3.458   0.000   0.000   5.020
   22        1.562   3.461   0.000   0.000   5.022
   23        1.556   3.466   0.000   0.000   5.022
   24        1.563   3.453   0.000   0.000   5.015
   25        1.562   3.452   0.000   0.000   5.014
   26        1.561   3.462   0.000   0.000   5.023
   27        1.564   3.448   0.000   0.000   5.012
   28        1.561   3.459   0.000   0.000   5.019
   29        1.561   3.464   0.000   0.000   5.025
   30        1.556   3.462   0.000   0.000   5.018
--------------------------------------------------
tot         42.338  99.824  42.514   1.148 185.823

 


 magnetization (x)
 
# of ion       s       p       d       f       tot
--------------------------------------------------
    1        0.000   0.001   0.005   0.002   0.008
    2        0.001   0.001   0.008   0.004   0.014
    3        0.001   0.001   0.011   0.004   0.017
    4        0.000   0.001   0.008   0.003   0.013
    5        0.001   0.001   0.007   0.003   0.012
    6        0.000   0.001   0.006   0.002   0.009
    7        0.022   0.024   3.232   0.000   3.279
    8        0.023   0.029   3.226   0.000   3.278
    9        0.024   0.035   3.200   0.000   3.259
   10        0.009  -0.003   1.677   0.000   1.683
   11        0.011   0.006   1.705   0.000   1.722
   12        0.011   0.001   1.656   0.000   1.667
   13        0.005  -0.011   0.000   0.000  -0.006
   14        0.005  -0.040   0.000   0.000  -0.035
   15        0.004  -0.009   0.000   0.000  -0.006
   16        0.002  -0.011   0.000   0.000  -0.010
   17        0.007   0.024   0.000   0.000   0.031
   18        0.005  -0.039   0.000   0.000  -0.034
   19        0.002  -0.010   0.000   0.000  -0.008
   20        0.005  -0.039   0.000   0.000  -0.034
   21        0.005  -0.005   0.000   0.000   0.000
   22        0.005  -0.010   0.000   0.000  -0.005
   23        0.007   0.031   0.000   0.000   0.038
   24        0.004  -0.042   0.000   0.000  -0.037
   25        0.004  -0.042   0.000   0.000  -0.038
   26        0.002  -0.013   0.000   0.000  -0.011
   27        0.005  -0.041   0.000   0.000  -0.036
   28        0.005  -0.005   0.000   0.000  -0.001
   29        0.005  -0.008   0.000   0.000  -0.003
   30        0.007   0.028   0.000   0.000   0.035
--------------------------------------------------
tot          0.185  -0.144  14.741   0.019  14.800

 
    CHARGE:  cpu time    0.1801: real time    0.1807
    FORLOC:  cpu time    0.0109: real time    0.0109
    FORNL :  cpu time    1.2816: real time    1.2880
    STRESS:  cpu time    3.6407: real time    3.6554
    FORCOR:  cpu time    0.0882: real time    0.0887
    FORHAR:  cpu time    0.0187: real time    0.0198
    MIXING:  cpu time    0.0270: real time    0.0271
    OFIELD:  cpu time    0.0001: real time    0.0003

  FORCE on cell =-STRESS in cart. coord.  units (eV):
  Direction    XX          YY          ZZ          XY          YZ          ZX
  --------------------------------------------------------------------------------------
  Alpha Z   984.63751   984.63751   984.63751
  Ewald   -5161.90111 -5161.90111 -5192.39813    13.52861    -4.14789     4.14789
  Hartree  1166.33011  1166.33011  1139.27040    14.69941    -3.16730     3.16730
  E(xc)   -1046.25605 -1046.25605 -1046.25891    -0.01592    -0.00091     0.00091
  Local    -696.64828  -696.64828  -638.06954   -28.62936     7.36376    -7.36376
  n-local   415.78272   416.07890   416.07145     0.15835     0.14861     0.23075
  augment   489.92791   489.92791   489.71432    -0.00372    -0.01351     0.01429
  Kinetic  3848.32898  3847.80938  3847.15789     0.26560    -0.55607    -0.47842
  Fock        0.00000     0.00000     0.00000     0.00000     0.00000     0.00000
  -------------------------------------------------------------------------------------
  Total       0.09007     0.09007     0.12500     0.00221    -0.01919     0.01919
  in kB       0.41148     0.41148     0.57103     0.01012    -0.08767     0.08767
  external pressure =        0.46 kB  Pullay stress =        0.00 kB


 VOLUME and BASIS-vectors are now :
 -----------------------------------------------------------------------------
  energy-cutoff  :      520.00
  volume of cell :      350.72
      direct lattice vectors                 reciprocal lattice vectors
     3.881801016  3.881801016  0.000000000     0.128806190  0.128806190  0.000000000
    -3.880435472  3.880435472  3.882504006    -0.085900981  0.085900981  0.085855308
     3.878494771 -3.878494771  7.761116063     0.042972029 -0.042972029  0.085898268

  length of vectors
     5.489695643  6.722305874  9.503702748     0.182159461  0.148758498  0.105222159


 FORCES acting on ions
    electron-ion (+dipol)            ewald-force                    non-local-force                 convergence-correction
 -----------------------------------------------------------------------------------------------
   0.323E+02 -.323E+02 0.498E+02   -.319E+02 0.319E+02 -.493E+02   -.333E+00 0.333E+00 -.538E+00   -.195E-01 0.195E-01 -.422E-01
   0.396E+02 -.396E+02 0.417E+02   -.390E+02 0.390E+02 -.413E+02   -.481E+00 0.481E+00 -.358E+00   -.229E-01 0.229E-01 -.349E-01
   -.185E+02 0.185E+02 0.283E+02   0.184E+02 -.184E+02 -.280E+02   0.308E-01 -.308E-01 -.297E+00   0.718E-03 -.718E-03 -.446E-02
   -.179E+02 0.179E+02 -.814E+02   0.175E+02 -.175E+02 0.804E+02   0.295E+00 -.295E+00 0.939E+00   0.194E-01 -.194E-01 0.480E-01
   0.610E+01 -.610E+01 -.811E+02   -.589E+01 0.589E+01 0.801E+02   -.195E+00 0.195E+00 0.933E+00   0.676E-02 -.676E-02 0.471E-01
   -.389E+02 0.389E+02 0.371E+02   0.382E+02 -.382E+02 -.365E+02   0.600E+00 -.600E+00 -.472E+00   0.143E-01 -.143E-01 -.137E-01
   0.213E+02 -.213E+02 -.218E+02   -.208E+02 0.208E+02 0.214E+02   -.468E+00 0.468E+00 0.387E+00   -.758E-02 0.758E-02 0.367E-02
   -.258E+02 0.258E+02 -.856E+01   0.254E+02 -.254E+02 0.848E+01   0.416E+00 -.416E+00 0.980E-01   0.186E-01 -.186E-01 0.125E-01
   0.618E+01 -.618E+01 0.260E+02   -.618E+01 0.618E+01 -.255E+02   -.200E-01 0.200E-01 -.490E+00   -.106E-01 0.106E-01 -.215E-01
   0.100E+02 -.100E+02 0.388E+02   -.963E+01 0.963E+01 -.371E+02   -.372E+00 0.372E+00 -.166E+01   -.164E-01 0.164E-01 -.510E-01
   0.296E+02 -.296E+02 -.262E+02   -.283E+02 0.283E+02 0.248E+02   -.122E+01 0.122E+01 0.137E+01   -.283E-01 0.283E-01 0.320E-01
   -.429E+02 0.429E+02 -.433E+01   0.411E+02 -.411E+02 0.421E+01   0.183E+01 -.183E+01 0.886E-01   0.449E-01 -.449E-01 0.258E-01
   0.488E+01 -.488E+01 -.495E+02   -.532E+01 0.532E+01 0.437E+02   0.464E+00 -.464E+00 0.573E+01   0.438E-02 -.438E-02 -.872E-02
   -.309E+01 0.309E+01 -.484E+02   0.272E+01 -.272E+01 0.420E+02   0.340E+00 -.340E+00 0.641E+01   0.897E-02 -.897E-02 -.251E-02
   -.921E+01 0.921E+01 0.385E+02   0.951E+01 -.951E+01 -.340E+02   -.301E+00 0.301E+00 -.454E+01   0.221E-02 -.221E-02 0.327E-01
   0.882E+01 -.882E+01 0.159E+02   -.879E+01 0.879E+01 -.158E+02   -.124E-01 0.124E-01 -.115E+00   -.108E-01 0.108E-01 -.224E-01
   0.103E+02 -.103E+02 0.112E+02   -.103E+02 0.103E+02 -.103E+02   0.834E-02 -.834E-02 -.835E+00   -.104E-01 0.104E-01 -.241E-01
   -.122E+02 0.122E+02 0.320E+02   0.124E+02 -.124E+02 -.259E+02   -.302E+00 0.302E+00 -.615E+01   0.645E-02 -.645E-02 0.247E-01
   -.177E+01 0.120E+01 -.114E+02   0.185E+01 -.110E+01 0.115E+02   -.908E-01 -.944E-01 -.186E+00   0.356E-02 -.130E-01 0.995E-02
   0.117E+02 -.327E+02 0.198E+01   -.119E+02 0.263E+02 -.149E+01   0.218E+00 0.643E+01 -.464E+00   -.779E-02 -.171E-01 -.122E-01
   0.191E+01 0.260E+02 0.204E+02   -.177E+01 -.207E+02 -.203E+02   -.134E+00 -.539E+01 -.398E-01   -.746E-02 0.348E-01 -.214E-01
   0.142E+02 -.365E+02 -.243E+01   -.145E+02 0.311E+02 0.265E+01   0.356E+00 0.547E+01 -.240E+00   -.103E-01 -.156E-01 -.203E-02
   -.428E+00 -.215E+01 -.845E+01   0.334E+00 0.289E+01 0.832E+01   0.103E+00 -.723E+00 0.110E+00   0.592E-02 -.923E-02 0.125E-01
   -.262E+02 0.443E+02 0.878E+00   0.264E+02 -.390E+02 -.143E+01   -.253E+00 -.532E+01 0.543E+00   0.161E-01 0.211E-01 0.139E-01
   -.443E+02 0.262E+02 0.878E+00   0.390E+02 -.264E+02 -.143E+01   0.532E+01 0.253E+00 0.543E+00   -.211E-01 -.161E-01 0.139E-01
   -.120E+01 0.177E+01 -.114E+02   0.110E+01 -.185E+01 0.115E+02   0.944E-01 0.908E-01 -.186E+00   0.130E-01 -.356E-02 0.995E-02
   0.327E+02 -.117E+02 0.198E+01   -.263E+02 0.119E+02 -.149E+01   -.643E+01 -.218E+00 -.464E+00   0.171E-01 0.779E-02 -.122E-01
   -.260E+02 -.191E+01 0.204E+02   0.207E+02 0.177E+01 -.203E+02   0.539E+01 0.134E+00 -.398E-01   -.348E-01 0.746E-02 -.214E-01
   0.365E+02 -.142E+02 -.243E+01   -.311E+02 0.145E+02 0.265E+01   -.547E+01 -.356E+00 -.240E+00   0.156E-01 0.103E-01 -.203E-02
   0.215E+01 0.428E+00 -.845E+01   -.289E+01 -.334E+00 0.832E+01   0.723E+00 -.103E+00 0.110E+00   0.923E-02 -.592E-02 0.125E-01
 -----------------------------------------------------------------------------------------------
   -.116E+00 0.116E+00 0.405E-01   -.128E-12 0.929E-13 -.160E-12   0.112E+00 -.112E+00 -.569E-01   -.741E-03 0.741E-03 0.229E-02
 
 
 POSITION                                       TOTAL-FORCE (eV/Angst)
 -----------------------------------------------------------------------------------
      3.91869     -0.03689      7.81653         0.009930     -0.009930     -0.010383
      0.05122     -0.05122      7.79685         0.055571     -0.055571     -0.023185
      3.87221      0.00959      3.91235         0.009287     -0.009287      0.023418
     -0.02863      0.02863      3.79579        -0.015312      0.015312     -0.032590
      0.01350      3.86830      3.79053         0.017683     -0.017683     -0.035130
      3.81276     -3.81276      7.80664        -0.083533      0.083533      0.051302
      1.94934      1.93246      5.81131        -0.008128      0.008128      0.012652
     -1.94495      1.94495      5.82577         0.015040     -0.015040      0.037439
      1.93604      1.94576      9.70848        -0.035044      0.035044     -0.016680
      1.93349     -1.93349      5.80650        -0.003829      0.003829     -0.024400
      1.92987     -1.92987      9.70944        -0.014812      0.014812      0.022490
      1.95764      1.92416      1.94152         0.025737     -0.025737     -0.004751
     -1.93293      1.93293      3.94023         0.028971     -0.028971     -0.015113
      1.94285      1.93895      3.93543        -0.018371      0.018371     -0.002584
     -1.93879      1.93879      7.72576         0.001767     -0.001767     -0.021539
      1.93193      1.94987      7.75442         0.002717     -0.002717     -0.001531
      1.92141     -1.92141      7.74202         0.006263     -0.006263      0.019078
      1.93610      1.94570     11.59423        -0.032245      0.032245      0.001757
      1.93826      3.87786      5.83087        -0.006814     -0.005893     -0.000483
      1.93837      0.05580      5.81609         0.003057      0.015066      0.013087
      1.93767      3.84379      9.68350        -0.006685     -0.011310      0.011639
      1.94080      0.05260      9.69833         0.032204     -0.007543     -0.015106
      1.94997      3.86578      1.95891         0.014388      0.001695     -0.001902
     -1.94065      3.83451      5.83590        -0.012118     -0.006290      0.002640
      0.04729      5.82245      5.83590         0.006290      0.012118      0.002640
      0.00395      1.94355      5.83087         0.005893      0.006814     -0.000483
      3.82600      1.94343      5.81609        -0.015066     -0.003057      0.013087
      0.03801      1.94413      9.68350         0.011310      0.006685      0.011639
      3.82920      1.94100      9.69833         0.007543     -0.032204     -0.015106
      0.01603      1.93183      1.95891        -0.001695     -0.014388     -0.001902
 -----------------------------------------------------------------------------------
    total drift:                               -0.005025      0.005025     -0.014036


--------------------------------------------------------------------------------------------------------



  FREE ENERGIE OF THE ION-ELECTRON SYSTEM (eV)
  ---------------------------------------------------
  free  energy   TOTEN  =      -220.81014554 eV

  energy  without entropy=     -220.81014554  energy(sigma->0) =     -220.81014554
 


--------------------------------------------------------------------------------------------------------


    POTLOK:  cpu time    0.1173: real time    0.1176


--------------------------------------------------------------------------------------------------------


     LOOP+:  cpu time  105.9978: real time  106.5410
    4ORBIT:  cpu time    0.0000: real time    0.0000
 


 total charge     
 
# of ion       s       p       d       f       tot
--------------------------------------------------
    1        2.000   5.697   0.493   0.190   8.380
    2        2.000   5.700   0.491   0.192   8.382
    3        1.999   5.700   0.489   0.192   8.380
    4        2.000   5.699   0.498   0.194   8.391
    5        2.000   5.698   0.490   0.191   8.379
    6        2.000   5.697   0.489   0.189   8.375
    7        0.353   0.557   4.862   0.000   5.773
    8        0.353   0.562   4.855   0.000   5.770
    9        0.360   0.581   4.866   0.000   5.807
   10        0.388   0.555   8.317   0.000   9.261
   11        0.392   0.565   8.334   0.000   9.290
   12        0.396   0.571   8.330   0.000   9.298
   13        1.562   3.455   0.000   0.000   5.017
   14        1.564   3.454   0.000   0.000   5.018
   15        1.560   3.457   0.000   0.000   5.017
   16        1.561   3.468   0.000   0.000   5.030
   17        1.555   3.457   0.000   0.000   5.012
   18        1.563   3.454   0.000   0.000   5.017
   19        1.562   3.463   0.000   0.000   5.024
   20        1.564   3.449   0.000   0.000   5.013
   21        1.562   3.458   0.000   0.000   5.020
   22        1.562   3.461   0.000   0.000   5.022
   23        1.556   3.466   0.000   0.000   5.022
   24        1.563   3.453   0.000   0.000   5.015
   25        1.562   3.452   0.000   0.000   5.014
   26        1.561   3.462   0.000   0.000   5.023
   27        1.564   3.448   0.000   0.000   5.012
   28        1.561   3.459   0.000   0.000   5.019
   29        1.561   3.464   0.000   0.000   5.025
   30        1.556   3.462   0.000   0.000   5.018
--------------------------------------------------
tot         42.338  99.824  42.514   1.148 185.823

 


 magnetization (x)
 
# of ion       s       p       d       f       tot
--------------------------------------------------
    1        0.000   0.001   0.005   0.002   0.008
    2        0.001   0.001   0.008   0.004   0.014
    3        0.001   0.001   0.011   0.004   0.017
    4        0.000   0.001   0.008   0.003   0.013
    5        0.001   0.001   0.007   0.003   0.012
    6        0.000   0.001   0.006   0.002   0.009
    7        0.022   0.024   3.232   0.000   3.279
    8        0.023   0.029   3.226   0.000   3.278
    9        0.024   0.035   3.200   0.000   3.259
   10        0.009  -0.003   1.677   0.000   1.683
   11        0.011   0.006   1.705   0.000   1.722
   12        0.011   0.001   1.656   0.000   1.667
   13        0.005  -0.011   0.000   0.000  -0.006
   14        0.005  -0.040   0.000   0.000  -0.035
   15        0.004  -0.009   0.000   0.000  -0.006
   16        0.002  -0.011   0.000   0.000  -0.010
   17        0.007   0.024   0.000   0.000   0.031
   18        0.005  -0.039   0.000   0.000  -0.034
   19        0.002  -0.010   0.000   0.000  -0.008
   20        0.005  -0.039   0.000   0.000  -0.034
   21        0.005  -0.005   0.000   0.000   0.000
   22        0.005  -0.010   0.000   0.000  -0.005
   23        0.007   0.031   0.000   0.000   0.038
   24        0.004  -0.042   0.000   0.000  -0.037
   25        0.004  -0.042   0.000   0.000  -0.038
   26        0.002  -0.013   0.000   0.000  -0.011
   27        0.005  -0.041   0.000   0.000  -0.036
   28        0.005  -0.005   0.000   0.000  -0.001
   29        0.005  -0.008   0.000   0.000  -0.003
   30        0.007   0.028   0.000   0.000   0.035
--------------------------------------------------
tot          0.185  -0.144  14.741   0.019  14.800

 
 BZINTS: Fermi energy:  7.649370;225.000000 electrons
         Band energy:-326.782933;  BLOECHL correction:  0.000000

 total amount of memory used by VASP MPI-rank0    76606. kBytes
=======================================================================

   base      :      30000. kBytes
   nonlr-proj:       6775. kBytes
   fftplans  :       2897. kBytes
   grid      :       8440. kBytes
   one-center:        294. kBytes
   wavefun   :      28200. kBytes
 
  
  
 General timing and accounting informations for this job:
 ========================================================
  
                  Total CPU time used (sec):      115.066
                            User time (sec):      111.937
                          System time (sec):        3.129
                         Elapsed time (sec):      115.928
  
                   Maximum memory used (kb):      130800.
                   Average memory used (kb):           0.
  
                          Minor page faults:        41277
                          Major page faults:            0
                 Voluntary context switches:         1257
