       N       E                     dE             d eps       ncg     rms          rms(c)
DAV:   1     0.357097357850E+04    0.35710E+04   -0.77467E+04  6128   0.243E+03
DAV:   2     0.124821055408E+04   -0.23228E+04   -0.20936E+04  6440   0.637E+02
DAV:   3     0.270645933795E+03   -0.97756E+03   -0.88330E+03  6656   0.333E+02
DAV:   4    -0.159540811092E+03   -0.43019E+03   -0.40516E+03  9288   0.183E+02
DAV:   5    -0.254951652555E+03   -0.95411E+02   -0.91594E+02 10512   0.975E+01    0.715E+01
RMM:   6    -0.228910194661E+03    0.26041E+02   -0.72668E+02  9458   0.106E+02    0.104E+02
RMM:   7    -0.228238459011E+03    0.67174E+00   -0.14224E+02 10063   0.369E+01    0.421E+01
RMM:   8    -0.222495430516E+03    0.57430E+01   -0.58834E+01  7477   0.382E+01    0.211E+01
RMM:   9    -0.226297877643E+03   -0.38024E+01   -0.41798E+01  9485   0.171E+01    0.156E+01
RMM:  10    -0.226772921473E+03   -0.47504E+00   -0.10088E+01 10247   0.722E+00    0.740E+00
RMM:  11    -0.226561754046E+03    0.21117E+00   -0.49062E+00  9512   0.730E+00    0.363E+00
RMM:  12    -0.226695931336E+03   -0.13418E+00   -0.18286E+00 10570   0.280E+00    0.213E+00
RMM:  13    -0.226725545010E+03   -0.29614E-01   -0.38407E-01 10482   0.150E+00    0.158E+00
RMM:  14    -0.226745297533E+03   -0.19753E-01   -0.19744E-01  9946   0.113E+00    0.920E-01
RMM:  15    -0.226748932562E+03   -0.36350E-02   -0.59970E-02  8600   0.677E-01    0.607E-01
RMM:  16    -0.226751834422E+03   -0.29019E-02   -0.42600E-02  7485   0.466E-01    0.410E-01
RMM:  17    -0.226753854802E+03   -0.20204E-02   -0.23317E-02  7053   0.455E-01    0.210E-01
RMM:  18    -0.226755417728E+03   -0.15629E-02   -0.17849E-02  6152   0.385E-01    0.755E-02
RMM:  19    -0.226756293964E+03   -0.87624E-03   -0.88382E-03  5848   0.349E-01
   1 F= -.22675629E+03 E0= -.22675629E+03  d E =0.000000E+00  mag=    18.0007
