 vasp.5.4.4.18Apr17-6-g9f103f2a35 (build Oct 03 2018 13:58:34) complex          
  
 executed on             LinuxIFC date 2019.06.04  01:18:24
 running on   40 total cores
 distrk:  each k-point on   20 cores,    2 groups
 distr:  one band on NCORES_PER_BAND=  10 cores,    2 groups


--------------------------------------------------------------------------------------------------------


 INCAR:
 POTCAR:    PAW_PBE La 06Sep2000                  
 POTCAR:    PAW_PBE Mn 06Sep2000                  
 POTCAR:    PAW_PBE Ni 02Aug2007                  
 POTCAR:    PAW_PBE O 08Apr2002                   

 ----------------------------------------------------------------------------- 
|                                                                             |
|           W    W    AA    RRRRR   N    N  II  N    N   GGGG   !!!           |
|           W    W   A  A   R    R  NN   N  II  NN   N  G    G  !!!           |
|           W    W  A    A  R    R  N N  N  II  N N  N  G       !!!           |
|           W WW W  AAAAAA  RRRRR   N  N N  II  N  N N  G  GGG   !            |
|           WW  WW  A    A  R   R   N   NN  II  N   NN  G    G                |
|           W    W  A    A  R    R  N    N  II  N    N   GGGG   !!!           |
|                                                                             |
|      You have enabled k-point parallelism (KPAR>1).                         |
|      This developmental code was originally  written by Paul Kent at ORNL,  |
|      and carefully double checked in Vienna.                                |
|      GW as well as linear response parallelism added by Martijn Marsman     |
|      and Georg Kresse.                                                      |
|      Carefully verify results versus KPAR=1.                                |
|      Report problems to Paul Kent and Vienna.                               |
|                                                                             |
 ----------------------------------------------------------------------------- 

 POTCAR:    PAW_PBE La 06Sep2000                  
   VRHFIN =La : [core=Kr4d]                                                     
   LEXCH  = PE                                                                  
   EATOM  =   865.9763 eV,   63.6475 Ry                                         
                                                                                
   TITEL  = PAW_PBE La 06Sep2000                                                
   LULTRA =        F    use ultrasoft PP ?                                      
   IUNSCR =        1    unscreen: 0-lin 1-nonlin 2-no                           
   RPACOR =    2.300    partial core radius                                     
   POMASS =  138.900; ZVAL   =   11.000    mass and valenz                      
   RCORE  =    2.800    outmost cutoff radius                                   
   RWIGS  =    2.900; RWIGS  =    1.535    wigner-seitz radius (au A)           
   ENMAX  =  219.292; ENMIN  =  164.469 eV                                      
   RCLOC  =    1.601    cutoff for local pot                                    
   LCOR   =        T    correct aug charges                                     
   LPAW   =        T    paw PP                                                  
   EAUG   =  583.575                                                            
   DEXC   =    0.000                                                            
   RMAX   =    2.853    core radius for proj-oper                               
   RAUG   =    1.300    factor for augmentation sphere                          
   RDEP   =    2.802    radius for radial grids                                 
   RDEPT  =    2.156    core radius for aug-charge                              
                                                                                
   Atomic configuration                                                         
   14 entries                                                                   
     n  l   j            E        occ.                                          
     1  0  0.50    -38741.0879   2.0000                                         
     2  0  0.50     -6166.6801   2.0000                                         
     2  1  1.50     -5526.1593   6.0000                                         
     3  0  0.50     -1319.0200   2.0000                                         
     3  1  1.50     -1114.5963   6.0000                                         
     3  2  2.50      -821.1793  10.0000                                         
     4  0  0.50      -266.3851   2.0000                                         
     4  1  1.50      -199.9276   6.0000                                         
     4  2  2.50      -103.8239  10.0000                                         
     5  0  0.50       -38.9172   2.0000                                         
     6  0  0.50        -3.6792   2.0000                                         
     5  1  1.50       -22.3948   6.0000                                         
     5  2  2.50        -3.0911   0.9999                                         
     4  3  2.50        -4.3603   0.0001                                         
   Description                                                                  
     l       E           TYP  RCUT    TYP  RCUT                                 
     0    -38.9171645     23  2.800                                             
     0     -3.6792381     23  2.800                                             
     1    -22.3948300     23  2.500                                             
     1     27.2116520     23  2.500                                             
     2     -3.0910934     23  2.500                                             
     2      1.0119135     23  2.500                                             
     3     -4.3602911     23  2.800                                             
     3     -5.7208737     23  2.800                                             
  local pseudopotential read in
  partial core-charges read in
  partial kinetic energy density read in
  atomic valenz-charges read in
  non local Contribution for L=           0  read in
    real space projection operators read in
  non local Contribution for L=           0  read in
    real space projection operators read in
  non local Contribution for L=           1  read in
    real space projection operators read in
  non local Contribution for L=           1  read in
    real space projection operators read in
  non local Contribution for L=           2  read in
    real space projection operators read in
  non local Contribution for L=           2  read in
    real space projection operators read in
  non local Contribution for L=           3  read in
    real space projection operators read in
  non local Contribution for L=           3  read in
    real space projection operators read in
    PAW grid and wavefunctions read in
 
   number of l-projection  operators is LMAX  =           8
   number of lm-projection operators is LMMAX =          32
 
 POTCAR:    PAW_PBE Mn 06Sep2000                  
   VRHFIN =Mn: d6 s1                                                            
   LEXCH  = PE                                                                  
   EATOM  =   416.7541 eV,   30.6306 Ry                                         
                                                                                
   TITEL  = PAW_PBE Mn 06Sep2000                                                
   LULTRA =        F    use ultrasoft PP ?                                      
   IUNSCR =        1    unscreen: 0-lin 1-nonlin 2-no                           
   RPACOR =    2.000    partial core radius                                     
   POMASS =   54.938; ZVAL   =    7.000    mass and valenz                      
   RCORE  =    2.300    outmost cutoff radius                                   
   RWIGS  =    2.500; RWIGS  =    1.323    wigner-seitz radius (au A)           
   ENMAX  =  269.864; ENMIN  =  202.398 eV                                      
   RCLOC  =    1.725    cutoff for local pot                                    
   LCOR   =        T    correct aug charges                                     
   LPAW   =        T    paw PP                                                  
   EAUG   =  500.711                                                            
   DEXC   =    0.000                                                            
   RMAX   =    2.343    core radius for proj-oper                               
   RAUG   =    1.300    factor for augmentation sphere                          
   RDEP   =    2.338    radius for radial grids                                 
   RDEPT  =    1.911    core radius for aug-charge                              
                                                                                
   Atomic configuration                                                         
    9 entries                                                                   
     n  l   j            E        occ.                                          
     1  0  0.50     -6424.8288   2.0000                                         
     2  0  0.50      -739.1154   2.0000                                         
     2  1  1.50      -625.3949   6.0000                                         
     3  0  0.50       -81.6100   2.0000                                         
     3  1  1.50       -50.4667   6.0000                                         
     3  2  2.50        -3.3745   6.0000                                         
     4  0  0.50        -4.1331   1.0000                                         
     4  1  0.50        -4.0817   0.0000                                         
     4  3  2.50        -1.3606   0.0000                                         
   Description                                                                  
     l       E           TYP  RCUT    TYP  RCUT                                 
     2     -3.3744664     23  2.300                                             
     2     -4.7350490     23  2.300                                             
     0     -4.1331408     23  2.300                                             
     0      7.6656614     23  2.300                                             
     1     -2.7211652     23  2.300                                             
     1     20.4087390     23  2.300                                             
  local pseudopotential read in
  partial core-charges read in
  partial kinetic energy density read in
  atomic valenz-charges read in
  non local Contribution for L=           2  read in
    real space projection operators read in
  non local Contribution for L=           2  read in
    real space projection operators read in
  non local Contribution for L=           0  read in
    real space projection operators read in
  non local Contribution for L=           0  read in
    real space projection operators read in
  non local Contribution for L=           1  read in
    real space projection operators read in
  non local Contribution for L=           1  read in
    real space projection operators read in
    PAW grid and wavefunctions read in
 
   number of l-projection  operators is LMAX  =           6
   number of lm-projection operators is LMMAX =          18
 
 POTCAR:    PAW_PBE Ni 02Aug2007                  
   VRHFIN =Ni:                                                                  
   LEXCH  = PE                                                                  
   EATOM  =  1077.6739 eV,   79.2068 Ry                                         
                                                                                
   TITEL  = PAW_PBE Ni 02Aug2007                                                
   LULTRA =        F    use ultrasoft PP ?                                      
   IUNSCR =        1    unscreen: 0-lin 1-nonlin 2-no                           
   RPACOR =    2.000    partial core radius                                     
   POMASS =   58.690; ZVAL   =   10.000    mass and valenz                      
   RCORE  =    2.300    outmost cutoff radius                                   
   RWIGS  =    2.430; RWIGS  =    1.286    wigner-seitz radius (au A)           
   ENMAX  =  269.532; ENMIN  =  202.149 eV                                      
   RCLOC  =    1.201    cutoff for local pot                                    
   LCOR   =        T    correct aug charges                                     
   LPAW   =        T    paw PP                                                  
   EAUG   =  544.565                                                            
   DEXC   =    0.000                                                            
   RMAX   =    2.357    core radius for proj-oper                               
   RAUG   =    1.300    factor for augmentation sphere                          
   RDEP   =    2.390    radius for radial grids                                 
   RDEPT  =    1.838    core radius for aug-charge                              
                                                                                
   Atomic configuration                                                         
    9 entries                                                                   
     n  l   j            E        occ.                                          
     1  0  0.50     -8206.4253   2.0000                                         
     2  0  0.50      -976.1748   2.0000                                         
     2  1  1.50      -839.0571   6.0000                                         
     3  0  0.50      -105.9991   2.0000                                         
     3  1  1.50       -66.4603   6.0000                                         
     3  2  2.50        -4.6458   9.0000                                         
     4  0  0.50        -4.4926   1.0000                                         
     4  1  1.50        -4.0817   0.0000                                         
     4  3  2.50        -1.3606   0.0000                                         
   Description                                                                  
     l       E           TYP  RCUT    TYP  RCUT                                 
     2     -4.6457903     23  2.300                                             
     2     -6.0063729     23  2.300                                             
     0     -4.4925590     23  2.300                                             
     0      5.0102601     23  2.300                                             
     1     -2.7211652     23  2.300                                             
     1     16.5183231     23  2.300                                             
  local pseudopotential read in
  partial core-charges read in
  partial kinetic energy density read in
  atomic valenz-charges read in
  non local Contribution for L=           2  read in
    real space projection operators read in
  non local Contribution for L=           2  read in
    real space projection operators read in
  non local Contribution for L=           0  read in
    real space projection operators read in
  non local Contribution for L=           0  read in
    real space projection operators read in
  non local Contribution for L=           1  read in
    real space projection operators read in
  non local Contribution for L=           1  read in
    real space projection operators read in
    PAW grid and wavefunctions read in
 
   number of l-projection  operators is LMAX  =           6
   number of lm-projection operators is LMMAX =          18
 
 POTCAR:    PAW_PBE O 08Apr2002                   
   VRHFIN =O: s2p4                                                              
   LEXCH  = PE                                                                  
   EATOM  =   432.3788 eV,   31.7789 Ry                                         
                                                                                
   TITEL  = PAW_PBE O 08Apr2002                                                 
   LULTRA =        F    use ultrasoft PP ?                                      
   IUNSCR =        1    unscreen: 0-lin 1-nonlin 2-no                           
   RPACOR =    1.200    partial core radius                                     
   POMASS =   16.000; ZVAL   =    6.000    mass and valenz                      
   RCORE  =    1.520    outmost cutoff radius                                   
   RWIGS  =    1.550; RWIGS  =    0.820    wigner-seitz radius (au A)           
   ENMAX  =  400.000; ENMIN  =  300.000 eV                                      
   ICORE  =        2    local potential                                         
   LCOR   =        T    correct aug charges                                     
   LPAW   =        T    paw PP                                                  
   EAUG   =  605.392                                                            
   DEXC   =    0.000                                                            
   RMAX   =    1.553    core radius for proj-oper                               
   RAUG   =    1.300    factor for augmentation sphere                          
   RDEP   =    1.550    radius for radial grids                                 
   RDEPT  =    1.329    core radius for aug-charge                              
                                                                                
   Atomic configuration                                                         
    4 entries                                                                   
     n  l   j            E        occ.                                          
     1  0  0.50      -514.6923   2.0000                                         
     2  0  0.50       -23.9615   2.0000                                         
     2  1  0.50        -9.0305   4.0000                                         
     3  2  1.50        -9.5241   0.0000                                         
   Description                                                                  
     l       E           TYP  RCUT    TYP  RCUT                                 
     0    -23.9615318     23  1.200                                             
     0     -9.5240782     23  1.200                                             
     1     -9.0304911     23  1.520                                             
     1      8.1634956     23  1.520                                             
     2     -9.5240782      7  1.500                                             
  local pseudopotential read in
  partial core-charges read in
  partial kinetic energy density read in
  kinetic energy density of atom read in
  atomic valenz-charges read in
  non local Contribution for L=           0  read in
    real space projection operators read in
  non local Contribution for L=           0  read in
    real space projection operators read in
  non local Contribution for L=           1  read in
    real space projection operators read in
  non local Contribution for L=           1  read in
    real space projection operators read in
    PAW grid and wavefunctions read in
 
   number of l-projection  operators is LMAX  =           4
   number of lm-projection operators is LMMAX =           8
 
 Optimization of the real space projectors (new method)

 maximal supplied QI-value         = 13.42
 optimisation between [QCUT,QGAM] = [ 11.67, 23.35] = [ 38.16,152.62] Ry 
 Optimized for a Real-space Cutoff    1.63 Angstroem

   l    n(q)    QCUT    max X(q) W(low)/X(q) W(high)/X(q)  e(spline) 
   0     11    11.673    13.882    0.27E-04    0.79E-05    0.11E-06
   0     11    11.673    12.184    0.39E-04    0.13E-04    0.19E-06
   1     11    11.673     4.523    0.73E-05    0.76E-05    0.12E-06
   1     11    11.673     4.424    0.87E-05    0.13E-04    0.19E-06
   2     10    11.673    52.481    0.65E-04    0.36E-04    0.18E-06
   2     10    11.673    38.501    0.61E-04    0.33E-04    0.17E-06
   3     10    11.673    65.631    0.17E-03    0.14E-03    0.37E-06
   3     10    11.673    56.854    0.17E-03    0.14E-03    0.37E-06
 Optimization of the real space projectors (new method)

 maximal supplied QI-value         = 16.25
 optimisation between [QCUT,QGAM] = [ 11.54, 23.24] = [ 37.28,151.24] Ry 
 Optimized for a Real-space Cutoff    1.53 Angstroem

   l    n(q)    QCUT    max X(q) W(low)/X(q) W(high)/X(q)  e(spline) 
   2     10    11.539   110.144    0.12E-03    0.13E-03    0.25E-06
   2     10    11.539   103.200    0.12E-03    0.13E-03    0.25E-06
   0     11    11.539    68.437    0.46E-04    0.21E-04    0.32E-06
   0     11    11.539    33.971    0.37E-04    0.19E-04    0.29E-06
   1     10    11.539    17.065    0.51E-04    0.22E-04    0.13E-06
   1     10    11.539    12.540    0.41E-04    0.18E-04    0.11E-06
 Optimization of the real space projectors (new method)

 maximal supplied QI-value         = 16.25
 optimisation between [QCUT,QGAM] = [ 11.54, 23.24] = [ 37.28,151.24] Ry 
 Optimized for a Real-space Cutoff    1.45 Angstroem

   l    n(q)    QCUT    max X(q) W(low)/X(q) W(high)/X(q)  e(spline) 
   2      9    11.539    60.317    0.19E-03    0.47E-04    0.16E-06
   2      9    11.539    55.921    0.19E-03    0.48E-04    0.16E-06
   0     10    11.539    51.690    0.80E-04    0.50E-04    0.24E-06
   0     10    11.539    30.015    0.73E-04    0.45E-04    0.22E-06
   1     10    11.539    18.849    0.87E-04    0.16E-03    0.71E-07
   1     10    11.539    14.624    0.73E-04    0.13E-03    0.64E-07
 Optimization of the real space projectors (new method)

 maximal supplied QI-value         = 24.76
 optimisation between [QCUT,QGAM] = [ 11.64, 23.27] = [ 37.91,151.63] Ry 
 Optimized for a Real-space Cutoff    1.14 Angstroem

   l    n(q)    QCUT    max X(q) W(low)/X(q) W(high)/X(q)  e(spline) 
   0      8    11.635    20.381    0.10E-03    0.33E-03    0.24E-06
   0      8    11.635    15.268    0.11E-03    0.35E-03    0.26E-06
   1      7    11.635     5.964    0.24E-03    0.31E-03    0.30E-06
   1      7    11.635     5.382    0.22E-03    0.25E-03    0.26E-06
  PAW_PBE La 06Sep2000                  :
 energy of atom  1       EATOM= -865.9763
 kinetic energy error for atom=    0.0009 (will be added to EATOM!!)
  PAW_PBE Mn 06Sep2000                  :
 energy of atom  2       EATOM= -416.7541
 kinetic energy error for atom=    0.0024 (will be added to EATOM!!)
  PAW_PBE Ni 02Aug2007                  :
 energy of atom  3       EATOM=-1077.6739
 kinetic energy error for atom=    0.0030 (will be added to EATOM!!)
  PAW_PBE O 08Apr2002                   :
 energy of atom  4       EATOM= -432.3788
 kinetic energy error for atom=    0.0208 (will be added to EATOM!!)
 
 
 POSCAR: SCEL6_2_1_3_0_1_1/5                     
  positions in direct lattice
  velocities in cartesian coordinates
 exchange correlation table for  LEXCH =        8
   RHO(1)=    0.500       N(1)  =     2000
   RHO(2)=  100.500       N(2)  =     4000
 


--------------------------------------------------------------------------------------------------------


 ion  position               nearest neighbor table
   1  0.165  0.165  0.330-  24 2.71  27 2.71  30 2.71  21 2.71  17 2.73  17 2.73  14 2.74  14 2.74
                            23 2.77  26 2.77  29 2.77  20 2.77  12 3.32  12 3.32  10 3.33  10 3.33
   2  0.333  0.333  0.667-  19 2.73  28 2.73  25 2.73  20 2.73  22 2.73  29 2.73  26 2.73  23 2.73
                            13 2.73  16 2.73  16 2.73  13 2.73   9 3.35  11 3.35   9 3.35  11 3.35
   3  0.502  0.502  0.003-  21 2.71  27 2.71  30 2.71  24 2.71  15 2.73  15 2.73  18 2.74  18 2.74
                            19 2.77  28 2.77  25 2.77  22 2.77  10 3.32  10 3.32  12 3.33  12 3.33
   4  0.665  0.665  0.330-  21 2.71  27 2.71  30 2.71  24 2.71  17 2.73  17 2.73  14 2.74  14 2.74
                            20 2.77  26 2.77  29 2.77  23 2.77  12 3.32  12 3.32  10 3.33  10 3.33
   5  0.833  0.833  0.667-  22 2.73  28 2.73  25 2.73  23 2.73  19 2.73  29 2.73  26 2.73  20 2.73
                            13 2.73  16 2.73  13 2.73  16 2.73   9 3.35  11 3.35   9 3.35  11 3.35
   6  0.002  0.002  0.003-  24 2.71  27 2.71  30 2.71  21 2.71  15 2.73  15 2.73  18 2.74  18 2.74
                            22 2.77  28 2.77  25 2.77  19 2.77  10 3.32  10 3.32  12 3.33  12 3.33
   7  0.749  0.249  0.499-  14 1.88  20 1.90  23 1.90  26 1.90  29 1.90  13 1.95   2 3.36   5 3.36
                             2 3.36   5 3.36   4 3.36   1 3.36   4 3.36   1 3.36
   8  0.917  0.417  0.835-  18 1.88  19 1.90  22 1.90  25 1.90  28 1.90  13 1.95   2 3.36   5 3.36
                             5 3.36   2 3.36   3 3.36   6 3.36   3 3.36   6 3.36
   9  0.417  0.917  0.833-  15 1.92  16 1.93  25 1.97  22 1.97  19 1.97  28 1.97   2 3.35   5 3.35
                             2 3.35   5 3.35   6 3.37   3 3.37   3 3.37   6 3.37
  10  0.583  0.083  0.166-  15 1.93  30 1.93  24 1.93  21 1.93  27 1.93  14 1.98   3 3.32   6 3.32
                             3 3.32   6 3.32   4 3.33   1 3.33   1 3.33   4 3.33
  11  0.250  0.750  0.500-  17 1.92  16 1.93  29 1.97  23 1.97  20 1.97  26 1.97   5 3.35   2 3.35
                             2 3.35   5 3.35   1 3.37   4 3.37   4 3.37   1 3.37
  12  0.084  0.584  0.168-  17 1.93  30 1.93  24 1.93  21 1.93  27 1.93  18 1.98   1 3.32   4 3.32
                             4 3.32   1 3.32   6 3.33   3 3.33   3 3.33   6 3.33
  13  0.833  0.333  0.667-   8 1.95   7 1.95   2 2.73   5 2.73   5 2.73   2 2.73
  14  0.668  0.168  0.336-   7 1.88  10 1.98   1 2.74   4 2.74   4 2.74   1 2.74
  15  0.499  0.999  0.999-   9 1.92  10 1.93   3 2.73   6 2.73   6 2.73   3 2.73
  16  0.333  0.833  0.667-   9 1.93  11 1.93   2 2.73   5 2.73   2 2.73   5 2.73
  17  0.167  0.667  0.334-  11 1.92  12 1.93   1 2.73   4 2.73   1 2.73   4 2.73
  18  0.999  0.499  0.997-   8 1.88  12 1.98   3 2.74   6 2.74   3 2.74   6 2.74
  19  0.161  0.171  0.833-   8 1.90   9 1.97   2 2.73   5 2.73   3 2.77   6 2.77
  20  0.995  0.005  0.501-   7 1.90  11 1.97   2 2.73   5 2.73   4 2.77   1 2.77
  21  0.833  0.833  0.167-  10 1.93  12 1.93   4 2.71   3 2.71   1 2.71   6 2.71
  22  0.671  0.661  0.833-   8 1.90   9 1.97   5 2.73   2 2.73   6 2.77   3 2.77
  23  0.505  0.495  0.501-   7 1.90  11 1.97   5 2.73   2 2.73   1 2.77   4 2.77
  24  0.333  0.333  0.167-  10 1.93  12 1.93   1 2.71   6 2.71   4 2.71   3 2.71
  25  0.671  0.171  0.833-   8 1.90   9 1.97   2 2.73   5 2.73   3 2.77   6 2.77
  26  0.505  0.005  0.501-   7 1.90  11 1.97   2 2.73   5 2.73   4 2.77   1 2.77
  27  0.333  0.833  0.167-  10 1.93  12 1.93   1 2.71   4 2.71   3 2.71   6 2.71
  28  0.161  0.661  0.833-   8 1.90   9 1.97   2 2.73   5 2.73   3 2.77   6 2.77
  29  0.995  0.495  0.501-   7 1.90  11 1.97   2 2.73   5 2.73   4 2.77   1 2.77
  30  0.833  0.333  0.167-  10 1.93  12 1.93   1 2.71   4 2.71   3 2.71   6 2.71
 
  LATTYP: Found a body centered tetragonal cell.
 ALAT       =     5.4685224195
 C/A-ratio  =     4.2404100928
  
  Lattice vectors:
  
 A1 = (   0.0000000000,  -3.8668292859,  11.5943888301)
 A2 = (   0.0000000000,   3.8668292859,  11.5943888301)
 A3 = (  -3.8668292859,   0.0000000000, -11.5943888301)


Analysis of symmetry for initial positions (statically):
=====================================================================
 Subroutine PRICEL returns:
 Original cell was already a primitive cell.
 

 Routine SETGRP: Setting up the symmetry group for a 
 body centered tetragonal supercell.


 Subroutine GETGRP returns: Found 16 space group operations
 (whereof  4 operations were pure point group operations)
 out of a pool of 16 trial point group operations.


The static configuration has the point symmetry C_2v.
 The point group associated with its full space group is D_4h.


Analysis of symmetry for dynamics (positions and initial velocities):
=====================================================================
 Subroutine PRICEL returns:
 Original cell was already a primitive cell.
 

 Routine SETGRP: Setting up the symmetry group for a 
 body centered tetragonal supercell.


 Subroutine GETGRP returns: Found 16 space group operations
 (whereof  4 operations were pure point group operations)
 out of a pool of 16 trial point group operations.


The dynamic configuration has the point symmetry C_2v.
 The point group associated with its full space group is D_4h.


Analysis of structural, dynamic, and magnetic symmetry:
=====================================================================
 Subroutine PRICEL returns:
 Original cell was already a primitive cell.
 

 Routine SETGRP: Setting up the symmetry group for a 
 body centered tetragonal supercell.


 Subroutine GETGRP returns: Found 16 space group operations
 (whereof  4 operations were pure point group operations)
 out of a pool of 16 trial point group operations.


The magnetic configuration has the point symmetry C_2v.
 The point group associated with its full space group is D_4h.


 Subroutine INISYM returns: Found 16 space group operations
 (whereof  4 operations are pure point group operations),
 and found     1 'primitive' translations

 
 
 KPOINTS: Automatic mesh                          

Automatic generation of k-mesh.
 generate k-points for:    4    4    2
Space group operators:
 irot       det(A)        alpha          n_x          n_y          n_z        tau_x        tau_y        tau_z
    1     1.000000     0.000000     1.000000     0.000000     0.000000     0.000000     0.000000     0.000000
    2     1.000000   180.000000     0.000000     0.000000     1.000000     0.000000     0.000000     0.000000
    3    -1.000000   180.000000     0.707107     0.707107     0.000000     0.000000     0.000000     0.000000
    4    -1.000000   180.000000     0.707107    -0.707107     0.000000     0.000000     0.000000     0.000000
    5    -1.000000     0.000000     1.000000     0.000000     0.000000     0.666667     0.666667     1.333333
    6     1.000000    90.000000     0.000000     0.000000    -1.000000     0.500000     0.500000     1.000000
    7    -1.000000    90.000000     0.000000     0.000000    -1.000000     0.166667     0.166667     0.333333
    8    -1.000000   180.000000     0.000000     0.000000     1.000000     0.666667     0.666667     1.333333
    9     1.000000    90.000000     0.000000     0.000000     1.000000     0.500000     0.500000     1.000000
   10    -1.000000    90.000000     0.000000     0.000000     1.000000     0.166667     0.166667     0.333333
   11     1.000000   180.000000     0.707107     0.707107     0.000000     0.666667     0.666667     1.333333
   12     1.000000   180.000000     1.000000     0.000000     0.000000     0.166667     0.166667     0.333333
   13    -1.000000   180.000000     1.000000     0.000000     0.000000     0.500000     0.500000     1.000000
   14     1.000000   180.000000     0.707107    -0.707107     0.000000     0.666667     0.666667     1.333333
   15     1.000000   180.000000     0.000000     1.000000     0.000000     0.166667     0.166667     0.333333
   16    -1.000000   180.000000     0.000000     1.000000     0.000000     0.500000     0.500000     1.000000
 
 Subroutine IBZKPT returns following result:
 ===========================================
 
 Found     10 irreducible k-points:
 
 Following reciprocal coordinates:
            Coordinates               Weight
  0.000000  0.000000  0.000000      1.000000
  0.250000  0.000000  0.000000      4.000000
  0.500000  0.000000  0.000000      4.000000
  0.250000  0.250000  0.000000      4.000000
  0.500000  0.250000  0.000000      8.000000
 -0.250000  0.250000  0.000000      2.000000
  0.500000  0.500000  0.000000      2.000000
  0.000000  0.000000  0.500000      1.000000
  0.250000  0.000000  0.500000      4.000000
 -0.250000  0.250000  0.500000      2.000000
 
 Following cartesian coordinates:
            Coordinates               Weight
  0.000000  0.000000  0.000000      1.000000
  0.032326 -0.032326  0.010781      4.000000
  0.064652 -0.064652  0.021562      4.000000
  0.064652  0.000000  0.021562      4.000000
  0.096979 -0.032326  0.032343      8.000000
  0.000000  0.064652  0.000000      2.000000
  0.129305  0.000000  0.043124      2.000000
  0.000000  0.000000  0.043124      1.000000
  0.032326 -0.032326  0.053905      4.000000
  0.000000  0.064652  0.043124      2.000000
 
 TETIRR: Found     41 inequivalent tetrahedra from      192


--------------------------------------------------------------------------------------------------------




 Dimension of arrays:
   k-points           NKPTS =     10   k-points in BZ     NKDIM =     10   number of bands    NBANDS=    146
   number of dos      NEDOS =    301   number of ions     NIONS =     30
   non local maximal  LDIM  =      8   non local SUM 2l+1 LMDIM =     32
   total plane-waves  NPLWV = 169344
   max r-space proj   IRMAX =   8864   max aug-charges    IRDMAX=  25717
   dimension x,y,z NGX =    42 NGY =   42 NGZ =   96
   dimension x,y,z NGXF=    84 NGYF=   84 NGZF=  192
   support grid    NGXF=    84 NGYF=   84 NGZF=  192
   ions per type =               6   2   4  18
   NGX,Y,Z   is equivalent  to a cutoff of  12.77, 12.77, 13.06 a.u.
   NGXF,Y,Z  is equivalent  to a cutoff of  25.54, 25.54, 26.12 a.u.

 SYSTEM =  final                                   
 POSCAR =  SCEL6_2_1_3_0_1_1/5                     

 Startparameter for this run:
   NWRITE =      2    write-flag & timer
   PREC   = accura    normal or accurate (medium, high low for compatibility)
   ISTART =      0    job   : 0-new  1-cont  2-samecut
   ICHARG =      1    charge: 1-file 2-atom 10-const
   ISPIN  =      2    spin polarized calculation?
   LNONCOLLINEAR =      F non collinear calculations
   LSORBIT =      F    spin-orbit coupling
   INIWAV =      1    electr: 0-lowe 1-rand  2-diag
   LASPH  =      F    aspherical Exc in radial PAW
   METAGGA=      F    non-selfconsistent MetaGGA calc.

 Electronic Relaxation 1
   ENCUT  =  520.0 eV  38.22 Ry    6.18 a.u.  10.17 10.17 22.73*2*pi/ulx,y,z
   ENINI  =  520.0     initial cutoff
   ENAUG  =  605.4 eV  augmentation charge cutoff
   NELM   =    100;   NELMIN=  2; NELMDL= -5     # of ELM steps 
   EDIFF  = 0.1E-02   stopping-criterion for ELM
   LREAL  =      T    real-space projection
   NLSPLINE    = F    spline interpolate recip. space projectors
   LCOMPAT=      F    compatible to vasp.4.4
   GGA_COMPAT  = T    GGA compatible to vasp.4.4-vasp.4.6
   LMAXPAW     = -100 max onsite density
   LMAXMIX     =    6 max onsite mixed and CHGCAR
   VOSKOWN=      0    Vosko Wilk Nusair interpolation
   ROPT   =   -0.00025  -0.00025  -0.00025  -0.00025
 Ionic relaxation
   EDIFFG = 0.1E-01   stopping-criterion for IOM
   NSW    =      0    number of steps for IOM
   NBLOCK =      1;   KBLOCK =      1    inner block; outer block 
   IBRION =     -1    ionic relax: 0-MD 1-quasi-New 2-CG
   NFREE  =      0    steps in history (QN), initial steepest desc. (CG)
   ISIF   =      2    stress and relaxation
   IWAVPR =     10    prediction:  0-non 1-charg 2-wave 3-comb
   ISYM   =      2    0-nonsym 1-usesym 2-fastsym
   LCORR  =      T    Harris-Foulkes like correction to forces

   POTIM  = 0.5000    time-step for ionic-motion
   TEIN   =    0.0    initial temperature
   TEBEG  =    0.0;   TEEND  =   0.0 temperature during run
   SMASS  =  -3.00    Nose mass-parameter (am)
   estimated Nose-frequenzy (Omega)   =  0.10E-29 period in steps =****** mass=  -0.683E-27a.u.
   SCALEE = 1.0000    scale energy and forces
   NPACO  =    256;   APACO  = 16.0  distance and # of slots for P.C.
   PSTRESS=    0.0 pullay stress

  Mass of Ions in am
   POMASS = 138.90 54.94 58.69 16.00
  Ionic Valenz
   ZVAL   =  11.00  7.00 10.00  6.00
  Atomic Wigner-Seitz radii
   RWIGS  =  -1.00 -1.00 -1.00 -1.00
  virtual crystal weights 
   VCA    =   1.00  1.00  1.00  1.00
   NELECT =     228.0000    total number of electrons
   NUPDOWN=      -1.0000    fix difference up-down

 DOS related values:
   EMIN   =  10.00;   EMAX   =-10.00  energy-range for DOS
   EFERMI =   0.00
   ISMEAR =    -5;   SIGMA  =   0.05  broadening in eV -4-tet -1-fermi 0-gaus

 Electronic relaxation 2 (details)
   IALGO  =     68    algorithm
   LDIAG  =      T    sub-space diagonalisation (order eigenvalues)
   LSUBROT=      F    optimize rotation matrix (better conditioning)
   TURBO    =      0    0=normal 1=particle mesh
   IRESTART =      0    0=no restart 2=restart with 2 vectors
   NREBOOT  =      0    no. of reboots
   NMIN     =      0    reboot dimension
   EREF     =   0.00    reference energy to select bands
   IMIX   =      4    mixing-type and parameters
     AMIX     =   0.40;   BMIX     =  1.00
     AMIX_MAG =   1.60;   BMIX_MAG =  1.00
     AMIN     =   0.10
     WC   =   100.;   INIMIX=   1;  MIXPRE=   1;  MAXMIX= -45

 Intra band minimization:
   WEIMIN = 0.0000     energy-eigenvalue tresh-hold
   EBREAK =  0.17E-05  absolut break condition
   DEPER  =   0.30     relativ break condition  

   TIME   =   0.40     timestep for ELM

  volume/ion in A,a.u.               =      11.56        77.99
  Fermi-wavevector in a.u.,A,eV,Ry     =   1.423608  2.690230 27.574389  2.026660
  Thomas-Fermi vector in A             =   2.544188
 
 Write flags
   LWAVE        =      F    write WAVECAR
   LDOWNSAMPLE  =      F    k-point downsampling of WAVECAR
   LCHARG       =      T    write CHGCAR
   LVTOT        =      F    write LOCPOT, total local potential
   LVHAR        =      F    write LOCPOT, Hartree potential only
   LELF         =      F    write electronic localiz. function (ELF)
   LORBIT       =     11    0 simple, 1 ext, 2 COOP (PROOUT), +10 PAW based schemes


 Dipole corrections
   LMONO  =      F    monopole corrections only (constant potential shift)
   LDIPOL =      F    correct potential (dipole corrections)
   IDIPOL =      0    1-x, 2-y, 3-z, 4-all directions 
   EPSILON=  1.0000000 bulk dielectric constant

 LDA+U is selected, type is set to LDAUTYPE =  2
   angular momentum for each species LDAUL =     0    2    2    0
   U (eV)           for each species LDAUU =   0.0  3.9  6.2  0.0
   J (eV)           for each species LDAUJ =   0.0  0.0  0.0  0.0
 Exchange correlation treatment:
   GGA     =    --    GGA type
   LEXCH   =     8    internal setting for exchange type
   VOSKOWN=      0    Vosko Wilk Nusair interpolation
   LHFCALC =     F    Hartree Fock is set to
   LHFONE  =     F    Hartree Fock one center treatment
   AEXX    =    0.0000 exact exchange contribution

 Linear response parameters
   LEPSILON=     F    determine dielectric tensor
   LRPA    =     F    only Hartree local field effects (RPA)
   LNABLA  =     F    use nabla operator in PAW spheres
   LVEL    =     F    velocity operator in full k-point grid
   LINTERFAST=   F  fast interpolation
   KINTER  =     0    interpolate to denser k-point grid
   CSHIFT  =0.1000    complex shift for real part using Kramers Kronig
   OMEGAMAX=  -1.0    maximum frequency
   DEG_THRESHOLD= 0.2000000E-02 threshold for treating states as degnerate
   RTIME   =   -0.100 relaxation time in fs
  (WPLASMAI=    0.000 imaginary part of plasma frequency in eV, 0.658/RTIME)
   DFIELD  = 0.0000000 0.0000000 0.0000000 field for delta impulse in time
 
 Orbital magnetization related:
   ORBITALMAG=     F  switch on orbital magnetization
   LCHIMAG   =     F  perturbation theory with respect to B field
   DQ        =  0.001000  dq finite difference perturbation B field
   LLRAUG    =     F  two centre corrections for induced B field



--------------------------------------------------------------------------------------------------------


 Static calculation
 charge density and potential will be updated during run
 spin polarized calculation
 RMM-DIIS sequential band-by-band and
  variant of blocked Davidson during initial phase
 perform sub-space diagonalisation
    before iterative eigenvector-optimisation
 modified Broyden-mixing scheme, WC =      100.0
 initial mixing is a Kerker type mixing with AMIX =  0.4000 and BMIX =      1.0000
 Hartree-type preconditioning will be used
 using additional bands           32
 real space projection scheme for non local part
 use partial core corrections
 calculate Harris-corrections to forces 
   (improved forces if not selfconsistent)
 use gradient corrections 
 use of overlap-Matrix (Vanderbilt PP)
 Fermi weights with tetrahedron method with Bloechl corrections


--------------------------------------------------------------------------------------------------------


  energy-cutoff  :      520.00
  volume of cell :      346.73
      direct lattice vectors                 reciprocal lattice vectors
     3.866829286 -3.866829286  0.000000000     0.129304907 -0.129304907  0.043124308
     3.866829286  3.866829286  0.000000000     0.129304907  0.129304907  0.043124308
    -3.866829286  0.000000000 11.594388830     0.000000000  0.000000000  0.086248617

  length of vectors
     5.468522419  5.468522419 12.222201973     0.187880877  0.187880877  0.086248617


 
 k-points in units of 2pi/SCALE and weight: Automatic mesh                          
   0.00000000  0.00000000  0.00000000       0.031
   0.03232623 -0.03232623  0.01078108       0.125
   0.06465245 -0.06465245  0.02156215       0.125
   0.06465245  0.00000000  0.02156215       0.125
   0.09697868 -0.03232623  0.03234323       0.250
   0.00000000  0.06465245  0.00000000       0.062
   0.12930491  0.00000000  0.04312431       0.062
   0.00000000  0.00000000  0.04312431       0.031
   0.03232623 -0.03232623  0.05390539       0.125
   0.00000000  0.06465245  0.04312431       0.062
 
 k-points in reciprocal lattice and weights: Automatic mesh                          
   0.00000000  0.00000000  0.00000000       0.031
   0.25000000  0.00000000  0.00000000       0.125
   0.50000000  0.00000000  0.00000000       0.125
   0.25000000  0.25000000  0.00000000       0.125
   0.50000000  0.25000000  0.00000000       0.250
  -0.25000000  0.25000000  0.00000000       0.062
   0.50000000  0.50000000  0.00000000       0.062
   0.00000000  0.00000000  0.50000000       0.031
   0.25000000  0.00000000  0.50000000       0.125
  -0.25000000  0.25000000  0.50000000       0.062
 
 position of ions in fractional coordinates (direct lattice) 
   0.16497635  0.16497635  0.32995259
   0.33333330  0.33333330  0.66666670
   0.50169035  0.50169035  0.00338071
   0.66497635  0.66497635  0.32995259
   0.83333330  0.83333330  0.66666670
   0.00169035  0.00169035  0.00338071
   0.74931546  0.24931546  0.49863093
   0.91735124  0.41735124  0.83470237
   0.41655991  0.91655991  0.83311971
   0.58282727  0.08282727  0.16565464
   0.25010679  0.75010679  0.50021359
   0.08383933  0.58383933  0.16767876
   0.83333330  0.33333330  0.66666670
   0.66804523  0.16804523  0.33609037
   0.49947730  0.99947730  0.99895459
   0.33333330  0.83333330  0.66666670
   0.16718940  0.66718940  0.33437871
   0.99862147  0.49862147  0.99724293
   0.16139989  0.17121667  0.83261646
   0.99545003  0.00526681  0.50071684
   0.83333330  0.83333330  0.16666670
   0.67121667  0.66139989  0.83261646
   0.50526681  0.49545003  0.50071684
   0.33333330  0.33333330  0.16666670
   0.67121667  0.17121667  0.83261646
   0.50526681  0.00526681  0.50071684
   0.33333330  0.83333330  0.16666670
   0.16139989  0.66139989  0.83261646
   0.99545003  0.49545003  0.50071684
   0.83333330  0.33333330  0.16666670
 
 position of ions in cartesian coordinates  (Angst):
   0.00000039  0.00000000  3.82559868
  -0.00000039  0.00000000  7.72959294
   3.86682929  0.00000000  0.03919721
   3.86682967  0.00000000  3.82559868
   3.86682890  0.00000000  7.72959294
   0.00000000  0.00000000  0.03919721
   1.93341464 -1.93341464  5.78132088
   1.93341503 -1.93341464  9.67786384
   1.93341503  1.93341464  9.65951387
   1.93341426 -1.93341464  1.92066426
   1.93341464  1.93341464  5.79967085
   1.93341426  1.93341464  1.94413279
   1.93341426 -1.93341464  7.72959294
   1.93341503 -1.93341464  3.89676243
   1.93341464  1.93341464 11.58226797
   1.93341426  1.93341464  7.72959294
   1.93341503  1.93341464  3.87691675
   1.93341464 -1.93341464 11.56242229
  -1.93341426  0.03795979  9.65367900
   1.93341464 -3.82886950  5.80550572
   5.80024354  0.00000000  1.93239852
   1.93341503 -0.03795979  9.65367900
   1.93341464 -0.03795979  5.80550572
   1.93341426  0.00000000  1.93239852
   0.03796018 -1.93341464  9.65367900
   0.03795979 -1.93341464  5.80550572
   3.86682890  1.93341464  1.93239852
  -0.03795940  1.93341464  9.65367900
   3.82886950 -1.93341464  5.80550572
   3.86682890 -1.93341464  1.93239852
 


--------------------------------------------------------------------------------------------------------


 k-point  1 :   0.0000 0.0000 0.0000  plane waves:    9299
 k-point  2 :   0.2500 0.0000 0.0000  plane waves:    9327
 k-point  3 :   0.5000 0.0000 0.0000  plane waves:    9340
 k-point  4 :   0.2500 0.2500 0.0000  plane waves:    9336
 k-point  5 :   0.5000 0.2500 0.0000  plane waves:    9346
 k-point  6 :  -0.2500 0.2500 0.0000  plane waves:    9332
 k-point  7 :   0.5000 0.5000 0.0000  plane waves:    9374
 k-point  8 :   0.0000 0.0000 0.5000  plane waves:    9368
 k-point  9 :   0.2500 0.0000 0.5000  plane waves:    9334
 k-point 10 :  -0.2500 0.2500 0.5000  plane waves:    9322

 maximum and minimum number of plane-waves per node :       952      913

 maximum number of plane-waves:      9374
 maximum index in each direction: 
   IXMAX=   10   IYMAX=   10   IZMAX=   22
   IXMIN=  -10   IYMIN=  -10   IZMIN=  -23


 real space projection operators:
  total allocation   :      21537.94 KBytes
  max/ min on nodes  :       2572.84       2033.75


 parallel 3D FFT for wavefunctions:
    minimum data exchange during FFTs selected (reduces bandwidth)
 parallel 3D FFT for charge:
    minimum data exchange during FFTs selected (reduces bandwidth)


 total amount of memory used by VASP MPI-rank0    74212. kBytes
=======================================================================

   base      :      30000. kBytes
   nonlr-proj:       7670. kBytes
   fftplans  :       3227. kBytes
   grid      :       9428. kBytes
   one-center:        294. kBytes
   wavefun   :      23593. kBytes
 
     INWAV:  cpu time    0.0000: real time    0.0002
 Broyden mixing: mesh for mixing (old mesh)
   NGX = 21   NGY = 21   NGZ = 45
  (NGX  = 84   NGY  = 84   NGZ  =192)
  gives a total of  19845 points

 initial charge density was supplied:
 charge density of overlapping atoms calculated
 number of electron     228.0000000 magnetization      20.0000000
 keeping initial charge density in first step


--------------------------------------------------------------------------------------------------------


 Maximum index for non-local projection operator         1246
 Maximum index for augmentation-charges         1998 (set IRDMAX)


--------------------------------------------------------------------------------------------------------


 First call to EWALD:  gamma=   0.252
 Maximum number of real-space cells 3x 3x 2
 Maximum number of reciprocal cells 2x 2x 4

    FEWALD:  cpu time    0.0016: real time    0.0016


--------------------------------------- Iteration      1(   1)  ---------------------------------------


    POTLOK:  cpu time    0.0914: real time    0.0928
    SETDIJ:  cpu time    0.0153: real time    0.0153
atom =   1  type =  1  l = 0
 
 onsite density matrix
 
spin component  1
 
  1.0989
 
spin component  2
 
  1.0989
 
 occupancies and eigenvectors
 
  o =  1.0989  v =  1.0000  0.0000      0.0000  0.0000
  o =  1.0989  v =  0.0000  1.0000      0.0000  0.0000
atom =   2  type =  1  l = 0
 
 onsite density matrix
 
spin component  1
 
  1.0989
 
spin component  2
 
  1.0989
 
 occupancies and eigenvectors
 
  o =  1.0989  v =  1.0000  0.0000      0.0000  0.0000
  o =  1.0989  v =  0.0000  1.0000      0.0000  0.0000
atom =   3  type =  1  l = 0
 
 onsite density matrix
 
spin component  1
 
  1.0989
 
spin component  2
 
  1.0989
 
 occupancies and eigenvectors
 
  o =  1.0989  v =  1.0000  0.0000      0.0000  0.0000
  o =  1.0989  v =  0.0000  1.0000      0.0000  0.0000
atom =   4  type =  1  l = 0
 
 onsite density matrix
 
spin component  1
 
  1.0989
 
spin component  2
 
  1.0989
 
 occupancies and eigenvectors
 
  o =  1.0989  v =  1.0000  0.0000      0.0000  0.0000
  o =  1.0989  v =  0.0000  1.0000      0.0000  0.0000
atom =   5  type =  1  l = 0
 
 onsite density matrix
 
spin component  1
 
  1.0989
 
spin component  2
 
  1.0989
 
 occupancies and eigenvectors
 
  o =  1.0989  v =  1.0000  0.0000      0.0000  0.0000
  o =  1.0989  v =  0.0000  1.0000      0.0000  0.0000
atom =   6  type =  1  l = 0
 
 onsite density matrix
 
spin component  1
 
  1.0989
 
spin component  2
 
  1.0989
 
 occupancies and eigenvectors
 
  o =  1.0989  v =  1.0000  0.0000      0.0000  0.0000
  o =  1.0989  v =  0.0000  1.0000      0.0000  0.0000
atom =   7  type =  2  l = 2
 
 onsite density matrix
 
spin component  1
 
  0.8272  0.0000  0.0000  0.0000  0.0000
  0.0000  0.8272  0.0000  0.0000  0.0000
  0.0000  0.0000  0.8272  0.0000  0.0000
  0.0000  0.0000  0.0000  0.8272  0.0000
  0.0000  0.0000  0.0000  0.0000  0.8272
 
spin component  2
 
  0.2256  0.0000  0.0000  0.0000  0.0000
  0.0000  0.2256  0.0000  0.0000  0.0000
  0.0000  0.0000  0.2256  0.0000  0.0000
  0.0000  0.0000  0.0000  0.2256  0.0000
  0.0000  0.0000  0.0000  0.0000  0.2256
 
 occupancies and eigenvectors
 
  o =  0.2256  v =  0.0000  0.0000  0.0000  0.0000  0.0000  0.0000  0.0000  1.0000  0.0000  0.0000      0.0000  0.0000  0.0000  0.0000  0.0000  0.0000  0.0000  0.0000  0.0000  0.0000
  o =  0.2256  v =  0.0000  0.0000  0.0000  0.0000  0.0000  1.0000  0.0000  0.0000  0.0000  0.0000      0.0000  0.0000  0.0000  0.0000  0.0000  0.0000  0.0000  0.0000  0.0000  0.0000
  o =  0.2256  v =  0.0000  0.0000  0.0000  0.0000  0.0000  0.0000  1.0000  0.0000  0.0000  0.0000      0.0000  0.0000  0.0000  0.0000  0.0000  0.0000  0.0000  0.0000  0.0000  0.0000
  o =  0.2256  v =  0.0000  0.0000  0.0000  0.0000  0.0000  0.0000  0.0000  0.0000  1.0000  0.0000      0.0000  0.0000  0.0000  0.0000  0.0000  0.0000  0.0000  0.0000  0.0000  0.0000
  o =  0.2256  v =  0.0000  0.0000  0.0000  0.0000  0.0000  0.0000  0.0000  0.0000  0.0000  1.0000      0.0000  0.0000  0.0000  0.0000  0.0000  0.0000  0.0000  0.0000  0.0000  0.0000
  o =  0.8272  v =  0.0000  1.0000  0.0000  0.0000  0.0000  0.0000  0.0000  0.0000  0.0000  0.0000      0.0000  0.0000  0.0000  0.0000  0.0000  0.0000  0.0000  0.0000  0.0000  0.0000
  o =  0.8272  v =  0.0000  0.0000  1.0000  0.0000  0.0000  0.0000  0.0000  0.0000  0.0000  0.0000      0.0000  0.0000  0.0000  0.0000  0.0000  0.0000  0.0000  0.0000  0.0000  0.0000
  o =  0.8272  v =  1.0000  0.0000  0.0000  0.0000  0.0000  0.0000  0.0000  0.0000  0.0000  0.0000      0.0000  0.0000  0.0000  0.0000  0.0000  0.0000  0.0000  0.0000  0.0000  0.0000
  o =  0.8272  v =  0.0000  0.0000  0.0000  1.0000  0.0000  0.0000  0.0000  0.0000  0.0000  0.0000      0.0000  0.0000  0.0000  0.0000  0.0000  0.0000  0.0000  0.0000  0.0000  0.0000
  o =  0.8272  v =  0.0000  0.0000  0.0000  0.0000  1.0000  0.0000  0.0000  0.0000  0.0000  0.0000      0.0000  0.0000  0.0000  0.0000  0.0000  0.0000  0.0000  0.0000  0.0000  0.0000
atom =   8  type =  2  l = 2
 
 onsite density matrix
 
spin component  1
 
  0.8272  0.0000  0.0000  0.0000  0.0000
  0.0000  0.8272  0.0000  0.0000  0.0000
  0.0000  0.0000  0.8272  0.0000  0.0000
  0.0000  0.0000  0.0000  0.8272  0.0000
  0.0000  0.0000  0.0000  0.0000  0.8272
 
spin component  2
 
  0.2256  0.0000  0.0000  0.0000  0.0000
  0.0000  0.2256  0.0000  0.0000  0.0000
  0.0000  0.0000  0.2256  0.0000  0.0000
  0.0000  0.0000  0.0000  0.2256  0.0000
  0.0000  0.0000  0.0000  0.0000  0.2256
 
 occupancies and eigenvectors
 
  o =  0.2256  v =  0.0000  0.0000  0.0000  0.0000  0.0000  0.0000  0.0000  1.0000  0.0000  0.0000      0.0000  0.0000  0.0000  0.0000  0.0000  0.0000  0.0000  0.0000  0.0000  0.0000
  o =  0.2256  v =  0.0000  0.0000  0.0000  0.0000  0.0000  1.0000  0.0000  0.0000  0.0000  0.0000      0.0000  0.0000  0.0000  0.0000  0.0000  0.0000  0.0000  0.0000  0.0000  0.0000
  o =  0.2256  v =  0.0000  0.0000  0.0000  0.0000  0.0000  0.0000  1.0000  0.0000  0.0000  0.0000      0.0000  0.0000  0.0000  0.0000  0.0000  0.0000  0.0000  0.0000  0.0000  0.0000
  o =  0.2256  v =  0.0000  0.0000  0.0000  0.0000  0.0000  0.0000  0.0000  0.0000  1.0000  0.0000      0.0000  0.0000  0.0000  0.0000  0.0000  0.0000  0.0000  0.0000  0.0000  0.0000
  o =  0.2256  v =  0.0000  0.0000  0.0000  0.0000  0.0000  0.0000  0.0000  0.0000  0.0000  1.0000      0.0000  0.0000  0.0000  0.0000  0.0000  0.0000  0.0000  0.0000  0.0000  0.0000
  o =  0.8272  v =  0.0000  1.0000  0.0000  0.0000  0.0000  0.0000  0.0000  0.0000  0.0000  0.0000      0.0000  0.0000  0.0000  0.0000  0.0000  0.0000  0.0000  0.0000  0.0000  0.0000
  o =  0.8272  v =  0.0000  0.0000  1.0000  0.0000  0.0000  0.0000  0.0000  0.0000  0.0000  0.0000      0.0000  0.0000  0.0000  0.0000  0.0000  0.0000  0.0000  0.0000  0.0000  0.0000
  o =  0.8272  v =  1.0000  0.0000  0.0000  0.0000  0.0000  0.0000  0.0000  0.0000  0.0000  0.0000      0.0000  0.0000  0.0000  0.0000  0.0000  0.0000  0.0000  0.0000  0.0000  0.0000
  o =  0.8272  v =  0.0000  0.0000  0.0000  1.0000  0.0000  0.0000  0.0000  0.0000  0.0000  0.0000      0.0000  0.0000  0.0000  0.0000  0.0000  0.0000  0.0000  0.0000  0.0000  0.0000
  o =  0.8272  v =  0.0000  0.0000  0.0000  0.0000  1.0000  0.0000  0.0000  0.0000  0.0000  0.0000      0.0000  0.0000  0.0000  0.0000  0.0000  0.0000  0.0000  0.0000  0.0000  0.0000
atom =   9  type =  3  l = 2
 
 onsite density matrix
 
spin component  1
 
  1.1008  0.0000  0.0000  0.0000  0.0000
  0.0000  1.1008  0.0000  0.0000  0.0000
  0.0000  0.0000  1.1008  0.0000  0.0000
  0.0000  0.0000  0.0000  1.1008  0.0000
  0.0000  0.0000  0.0000  0.0000  1.1008
 
spin component  2
 
  0.5927  0.0000  0.0000  0.0000  0.0000
  0.0000  0.5927  0.0000  0.0000  0.0000
  0.0000  0.0000  0.5927  0.0000  0.0000
  0.0000  0.0000  0.0000  0.5927  0.0000
  0.0000  0.0000  0.0000  0.0000  0.5927
 
 occupancies and eigenvectors
 
  o =  0.5927  v =  0.0000  0.0000  0.0000  0.0000  0.0000  1.0000  0.0000  0.0000  0.0000  0.0000      0.0000  0.0000  0.0000  0.0000  0.0000  0.0000  0.0000  0.0000  0.0000  0.0000
  o =  0.5927  v =  0.0000  0.0000  0.0000  0.0000  0.0000  0.0000  1.0000  0.0000  0.0000  0.0000      0.0000  0.0000  0.0000  0.0000  0.0000  0.0000  0.0000  0.0000  0.0000  0.0000
  o =  0.5927  v =  0.0000  0.0000  0.0000  0.0000  0.0000  0.0000  0.0000  1.0000  0.0000  0.0000      0.0000  0.0000  0.0000  0.0000  0.0000  0.0000  0.0000  0.0000  0.0000  0.0000
  o =  0.5927  v =  0.0000  0.0000  0.0000  0.0000  0.0000  0.0000  0.0000  0.0000  1.0000  0.0000      0.0000  0.0000  0.0000  0.0000  0.0000  0.0000  0.0000  0.0000  0.0000  0.0000
  o =  0.5927  v =  0.0000  0.0000  0.0000  0.0000  0.0000  0.0000  0.0000  0.0000  0.0000  1.0000      0.0000  0.0000  0.0000  0.0000  0.0000  0.0000  0.0000  0.0000  0.0000  0.0000
  o =  1.1008  v =  1.0000  0.0000  0.0000  0.0000  0.0000  0.0000  0.0000  0.0000  0.0000  0.0000      0.0000  0.0000  0.0000  0.0000  0.0000  0.0000  0.0000  0.0000  0.0000  0.0000
  o =  1.1008  v =  0.0000  1.0000  0.0000  0.0000  0.0000  0.0000  0.0000  0.0000  0.0000  0.0000      0.0000  0.0000  0.0000  0.0000  0.0000  0.0000  0.0000  0.0000  0.0000  0.0000
  o =  1.1008  v =  0.0000  0.0000  1.0000  0.0000  0.0000  0.0000  0.0000  0.0000  0.0000  0.0000      0.0000  0.0000  0.0000  0.0000  0.0000  0.0000  0.0000  0.0000  0.0000  0.0000
  o =  1.1008  v =  0.0000  0.0000  0.0000  1.0000  0.0000  0.0000  0.0000  0.0000  0.0000  0.0000      0.0000  0.0000  0.0000  0.0000  0.0000  0.0000  0.0000  0.0000  0.0000  0.0000
  o =  1.1008  v =  0.0000  0.0000  0.0000  0.0000  1.0000  0.0000  0.0000  0.0000  0.0000  0.0000      0.0000  0.0000  0.0000  0.0000  0.0000  0.0000  0.0000  0.0000  0.0000  0.0000
atom =  10  type =  3  l = 2
 
 onsite density matrix
 
spin component  1
 
  1.1008  0.0000  0.0000  0.0000  0.0000
  0.0000  1.1008  0.0000  0.0000  0.0000
  0.0000  0.0000  1.1008  0.0000  0.0000
  0.0000  0.0000  0.0000  1.1008  0.0000
  0.0000  0.0000  0.0000  0.0000  1.1008
 
spin component  2
 
  0.5927  0.0000  0.0000  0.0000  0.0000
  0.0000  0.5927  0.0000  0.0000  0.0000
  0.0000  0.0000  0.5927  0.0000  0.0000
  0.0000  0.0000  0.0000  0.5927  0.0000
  0.0000  0.0000  0.0000  0.0000  0.5927
 
 occupancies and eigenvectors
 
  o =  0.5927  v =  0.0000  0.0000  0.0000  0.0000  0.0000  1.0000  0.0000  0.0000  0.0000  0.0000      0.0000  0.0000  0.0000  0.0000  0.0000  0.0000  0.0000  0.0000  0.0000  0.0000
  o =  0.5927  v =  0.0000  0.0000  0.0000  0.0000  0.0000  0.0000  1.0000  0.0000  0.0000  0.0000      0.0000  0.0000  0.0000  0.0000  0.0000  0.0000  0.0000  0.0000  0.0000  0.0000
  o =  0.5927  v =  0.0000  0.0000  0.0000  0.0000  0.0000  0.0000  0.0000  1.0000  0.0000  0.0000      0.0000  0.0000  0.0000  0.0000  0.0000  0.0000  0.0000  0.0000  0.0000  0.0000
  o =  0.5927  v =  0.0000  0.0000  0.0000  0.0000  0.0000  0.0000  0.0000  0.0000  1.0000  0.0000      0.0000  0.0000  0.0000  0.0000  0.0000  0.0000  0.0000  0.0000  0.0000  0.0000
  o =  0.5927  v =  0.0000  0.0000  0.0000  0.0000  0.0000  0.0000  0.0000  0.0000  0.0000  1.0000      0.0000  0.0000  0.0000  0.0000  0.0000  0.0000  0.0000  0.0000  0.0000  0.0000
  o =  1.1008  v =  1.0000  0.0000  0.0000  0.0000  0.0000  0.0000  0.0000  0.0000  0.0000  0.0000      0.0000  0.0000  0.0000  0.0000  0.0000  0.0000  0.0000  0.0000  0.0000  0.0000
  o =  1.1008  v =  0.0000  1.0000  0.0000  0.0000  0.0000  0.0000  0.0000  0.0000  0.0000  0.0000      0.0000  0.0000  0.0000  0.0000  0.0000  0.0000  0.0000  0.0000  0.0000  0.0000
  o =  1.1008  v =  0.0000  0.0000  1.0000  0.0000  0.0000  0.0000  0.0000  0.0000  0.0000  0.0000      0.0000  0.0000  0.0000  0.0000  0.0000  0.0000  0.0000  0.0000  0.0000  0.0000
  o =  1.1008  v =  0.0000  0.0000  0.0000  1.0000  0.0000  0.0000  0.0000  0.0000  0.0000  0.0000      0.0000  0.0000  0.0000  0.0000  0.0000  0.0000  0.0000  0.0000  0.0000  0.0000
  o =  1.1008  v =  0.0000  0.0000  0.0000  0.0000  1.0000  0.0000  0.0000  0.0000  0.0000  0.0000      0.0000  0.0000  0.0000  0.0000  0.0000  0.0000  0.0000  0.0000  0.0000  0.0000
atom =  11  type =  3  l = 2
 
 onsite density matrix
 
spin component  1
 
  1.1008  0.0000  0.0000  0.0000  0.0000
  0.0000  1.1008  0.0000  0.0000  0.0000
  0.0000  0.0000  1.1008  0.0000  0.0000
  0.0000  0.0000  0.0000  1.1008  0.0000
  0.0000  0.0000  0.0000  0.0000  1.1008
 
spin component  2
 
  0.5927  0.0000  0.0000  0.0000  0.0000
  0.0000  0.5927  0.0000  0.0000  0.0000
  0.0000  0.0000  0.5927  0.0000  0.0000
  0.0000  0.0000  0.0000  0.5927  0.0000
  0.0000  0.0000  0.0000  0.0000  0.5927
 
 occupancies and eigenvectors
 
  o =  0.5927  v =  0.0000  0.0000  0.0000  0.0000  0.0000  1.0000  0.0000  0.0000  0.0000  0.0000      0.0000  0.0000  0.0000  0.0000  0.0000  0.0000  0.0000  0.0000  0.0000  0.0000
  o =  0.5927  v =  0.0000  0.0000  0.0000  0.0000  0.0000  0.0000  1.0000  0.0000  0.0000  0.0000      0.0000  0.0000  0.0000  0.0000  0.0000  0.0000  0.0000  0.0000  0.0000  0.0000
  o =  0.5927  v =  0.0000  0.0000  0.0000  0.0000  0.0000  0.0000  0.0000  1.0000  0.0000  0.0000      0.0000  0.0000  0.0000  0.0000  0.0000  0.0000  0.0000  0.0000  0.0000  0.0000
  o =  0.5927  v =  0.0000  0.0000  0.0000  0.0000  0.0000  0.0000  0.0000  0.0000  1.0000  0.0000      0.0000  0.0000  0.0000  0.0000  0.0000  0.0000  0.0000  0.0000  0.0000  0.0000
  o =  0.5927  v =  0.0000  0.0000  0.0000  0.0000  0.0000  0.0000  0.0000  0.0000  0.0000  1.0000      0.0000  0.0000  0.0000  0.0000  0.0000  0.0000  0.0000  0.0000  0.0000  0.0000
  o =  1.1008  v =  1.0000  0.0000  0.0000  0.0000  0.0000  0.0000  0.0000  0.0000  0.0000  0.0000      0.0000  0.0000  0.0000  0.0000  0.0000  0.0000  0.0000  0.0000  0.0000  0.0000
  o =  1.1008  v =  0.0000  1.0000  0.0000  0.0000  0.0000  0.0000  0.0000  0.0000  0.0000  0.0000      0.0000  0.0000  0.0000  0.0000  0.0000  0.0000  0.0000  0.0000  0.0000  0.0000
  o =  1.1008  v =  0.0000  0.0000  1.0000  0.0000  0.0000  0.0000  0.0000  0.0000  0.0000  0.0000      0.0000  0.0000  0.0000  0.0000  0.0000  0.0000  0.0000  0.0000  0.0000  0.0000
  o =  1.1008  v =  0.0000  0.0000  0.0000  1.0000  0.0000  0.0000  0.0000  0.0000  0.0000  0.0000      0.0000  0.0000  0.0000  0.0000  0.0000  0.0000  0.0000  0.0000  0.0000  0.0000
  o =  1.1008  v =  0.0000  0.0000  0.0000  0.0000  1.0000  0.0000  0.0000  0.0000  0.0000  0.0000      0.0000  0.0000  0.0000  0.0000  0.0000  0.0000  0.0000  0.0000  0.0000  0.0000
atom =  12  type =  3  l = 2
 
 onsite density matrix
 
spin component  1
 
  1.1008  0.0000  0.0000  0.0000  0.0000
  0.0000  1.1008  0.0000  0.0000  0.0000
  0.0000  0.0000  1.1008  0.0000  0.0000
  0.0000  0.0000  0.0000  1.1008  0.0000
  0.0000  0.0000  0.0000  0.0000  1.1008
 
spin component  2
 
  0.5927  0.0000  0.0000  0.0000  0.0000
  0.0000  0.5927  0.0000  0.0000  0.0000
  0.0000  0.0000  0.5927  0.0000  0.0000
  0.0000  0.0000  0.0000  0.5927  0.0000
  0.0000  0.0000  0.0000  0.0000  0.5927
 
 occupancies and eigenvectors
 
  o =  0.5927  v =  0.0000  0.0000  0.0000  0.0000  0.0000  1.0000  0.0000  0.0000  0.0000  0.0000      0.0000  0.0000  0.0000  0.0000  0.0000  0.0000  0.0000  0.0000  0.0000  0.0000
  o =  0.5927  v =  0.0000  0.0000  0.0000  0.0000  0.0000  0.0000  1.0000  0.0000  0.0000  0.0000      0.0000  0.0000  0.0000  0.0000  0.0000  0.0000  0.0000  0.0000  0.0000  0.0000
  o =  0.5927  v =  0.0000  0.0000  0.0000  0.0000  0.0000  0.0000  0.0000  1.0000  0.0000  0.0000      0.0000  0.0000  0.0000  0.0000  0.0000  0.0000  0.0000  0.0000  0.0000  0.0000
  o =  0.5927  v =  0.0000  0.0000  0.0000  0.0000  0.0000  0.0000  0.0000  0.0000  1.0000  0.0000      0.0000  0.0000  0.0000  0.0000  0.0000  0.0000  0.0000  0.0000  0.0000  0.0000
  o =  0.5927  v =  0.0000  0.0000  0.0000  0.0000  0.0000  0.0000  0.0000  0.0000  0.0000  1.0000      0.0000  0.0000  0.0000  0.0000  0.0000  0.0000  0.0000  0.0000  0.0000  0.0000
  o =  1.1008  v =  1.0000  0.0000  0.0000  0.0000  0.0000  0.0000  0.0000  0.0000  0.0000  0.0000      0.0000  0.0000  0.0000  0.0000  0.0000  0.0000  0.0000  0.0000  0.0000  0.0000
  o =  1.1008  v =  0.0000  1.0000  0.0000  0.0000  0.0000  0.0000  0.0000  0.0000  0.0000  0.0000      0.0000  0.0000  0.0000  0.0000  0.0000  0.0000  0.0000  0.0000  0.0000  0.0000
  o =  1.1008  v =  0.0000  0.0000  1.0000  0.0000  0.0000  0.0000  0.0000  0.0000  0.0000  0.0000      0.0000  0.0000  0.0000  0.0000  0.0000  0.0000  0.0000  0.0000  0.0000  0.0000
  o =  1.1008  v =  0.0000  0.0000  0.0000  1.0000  0.0000  0.0000  0.0000  0.0000  0.0000  0.0000      0.0000  0.0000  0.0000  0.0000  0.0000  0.0000  0.0000  0.0000  0.0000  0.0000
  o =  1.1008  v =  0.0000  0.0000  0.0000  0.0000  1.0000  0.0000  0.0000  0.0000  0.0000  0.0000      0.0000  0.0000  0.0000  0.0000  0.0000  0.0000  0.0000  0.0000  0.0000  0.0000
atom =  13  type =  4  l = 0
 
 onsite density matrix
 
spin component  1
 
  0.8190
 
spin component  2
 
  0.8190
 
 occupancies and eigenvectors
 
  o =  0.8190  v =  1.0000  0.0000      0.0000  0.0000
  o =  0.8190  v =  0.0000  1.0000      0.0000  0.0000
atom =  14  type =  4  l = 0
 
 onsite density matrix
 
spin component  1
 
  0.8190
 
spin component  2
 
  0.8190
 
 occupancies and eigenvectors
 
  o =  0.8190  v =  1.0000  0.0000      0.0000  0.0000
  o =  0.8190  v =  0.0000  1.0000      0.0000  0.0000
atom =  15  type =  4  l = 0
 
 onsite density matrix
 
spin component  1
 
  0.8190
 
spin component  2
 
  0.8190
 
 occupancies and eigenvectors
 
  o =  0.8190  v =  1.0000  0.0000      0.0000  0.0000
  o =  0.8190  v =  0.0000  1.0000      0.0000  0.0000
atom =  16  type =  4  l = 0
 
 onsite density matrix
 
spin component  1
 
  0.8190
 
spin component  2
 
  0.8190
 
 occupancies and eigenvectors
 
  o =  0.8190  v =  1.0000  0.0000      0.0000  0.0000
  o =  0.8190  v =  0.0000  1.0000      0.0000  0.0000
atom =  17  type =  4  l = 0
 
 onsite density matrix
 
spin component  1
 
  0.8190
 
spin component  2
 
  0.8190
 
 occupancies and eigenvectors
 
  o =  0.8190  v =  1.0000  0.0000      0.0000  0.0000
  o =  0.8190  v =  0.0000  1.0000      0.0000  0.0000
atom =  18  type =  4  l = 0
 
 onsite density matrix
 
spin component  1
 
  0.8190
 
spin component  2
 
  0.8190
 
 occupancies and eigenvectors
 
  o =  0.8190  v =  1.0000  0.0000      0.0000  0.0000
  o =  0.8190  v =  0.0000  1.0000      0.0000  0.0000
atom =  19  type =  4  l = 0
 
 onsite density matrix
 
spin component  1
 
  0.8190
 
spin component  2
 
  0.8190
 
 occupancies and eigenvectors
 
  o =  0.8190  v =  1.0000  0.0000      0.0000  0.0000
  o =  0.8190  v =  0.0000  1.0000      0.0000  0.0000
atom =  20  type =  4  l = 0
 
 onsite density matrix
 
spin component  1
 
  0.8190
 
spin component  2
 
  0.8190
 
 occupancies and eigenvectors
 
  o =  0.8190  v =  1.0000  0.0000      0.0000  0.0000
  o =  0.8190  v =  0.0000  1.0000      0.0000  0.0000
atom =  21  type =  4  l = 0
 
 onsite density matrix
 
spin component  1
 
  0.8190
 
spin component  2
 
  0.8190
 
 occupancies and eigenvectors
 
  o =  0.8190  v =  1.0000  0.0000      0.0000  0.0000
  o =  0.8190  v =  0.0000  1.0000      0.0000  0.0000
atom =  22  type =  4  l = 0
 
 onsite density matrix
 
spin component  1
 
  0.8190
 
spin component  2
 
  0.8190
 
 occupancies and eigenvectors
 
  o =  0.8190  v =  1.0000  0.0000      0.0000  0.0000
  o =  0.8190  v =  0.0000  1.0000      0.0000  0.0000
atom =  23  type =  4  l = 0
 
 onsite density matrix
 
spin component  1
 
  0.8190
 
spin component  2
 
  0.8190
 
 occupancies and eigenvectors
 
  o =  0.8190  v =  1.0000  0.0000      0.0000  0.0000
  o =  0.8190  v =  0.0000  1.0000      0.0000  0.0000
atom =  24  type =  4  l = 0
 
 onsite density matrix
 
spin component  1
 
  0.8190
 
spin component  2
 
  0.8190
 
 occupancies and eigenvectors
 
  o =  0.8190  v =  1.0000  0.0000      0.0000  0.0000
  o =  0.8190  v =  0.0000  1.0000      0.0000  0.0000
atom =  25  type =  4  l = 0
 
 onsite density matrix
 
spin component  1
 
  0.8190
 
spin component  2
 
  0.8190
 
 occupancies and eigenvectors
 
  o =  0.8190  v =  1.0000  0.0000      0.0000  0.0000
  o =  0.8190  v =  0.0000  1.0000      0.0000  0.0000
atom =  26  type =  4  l = 0
 
 onsite density matrix
 
spin component  1
 
  0.8190
 
spin component  2
 
  0.8190
 
 occupancies and eigenvectors
 
  o =  0.8190  v =  1.0000  0.0000      0.0000  0.0000
  o =  0.8190  v =  0.0000  1.0000      0.0000  0.0000
atom =  27  type =  4  l = 0
 
 onsite density matrix
 
spin component  1
 
  0.8190
 
spin component  2
 
  0.8190
 
 occupancies and eigenvectors
 
  o =  0.8190  v =  1.0000  0.0000      0.0000  0.0000
  o =  0.8190  v =  0.0000  1.0000      0.0000  0.0000
atom =  28  type =  4  l = 0
 
 onsite density matrix
 
spin component  1
 
  0.8190
 
spin component  2
 
  0.8190
 
 occupancies and eigenvectors
 
  o =  0.8190  v =  1.0000  0.0000      0.0000  0.0000
  o =  0.8190  v =  0.0000  1.0000      0.0000  0.0000
atom =  29  type =  4  l = 0
 
 onsite density matrix
 
spin component  1
 
  0.8190
 
spin component  2
 
  0.8190
 
 occupancies and eigenvectors
 
  o =  0.8190  v =  1.0000  0.0000      0.0000  0.0000
  o =  0.8190  v =  0.0000  1.0000      0.0000  0.0000
atom =  30  type =  4  l = 0
 
 onsite density matrix
 
spin component  1
 
  0.8190
 
spin component  2
 
  0.8190
 
 occupancies and eigenvectors
 
  o =  0.8190  v =  1.0000  0.0000      0.0000  0.0000
  o =  0.8190  v =  0.0000  1.0000      0.0000  0.0000
     EDDAV:  cpu time    3.7988: real time    3.8152
 BZINTS: Fermi energy: 32.809839;228.000000 electrons
         Band energy:3466.211017;  BLOECHL correction: -0.274421
       DOS:  cpu time    0.0172: real time    0.0176
    --------------------------------------------
      LOOP:  cpu time    3.9227: real time    3.9409

 eigenvalue-minimisations  :  6170
 total energy-change (2. order) : 0.3600688E+04  (-0.8016656E+04)
 number of electron     228.0000000 magnetization      20.0000000
 augmentation part      228.0000000 magnetization      20.0000000

 Free energy of the ion-electron system (eV)
  ---------------------------------------------------
  alpha Z        PSCENC =       990.92775269
  Ewald energy   TEWEN  =    -15966.02222476
  -Hartree energ DENC   =     -3656.16317273
  -exchange      EXHF   =         0.00000000
  -V(xc)+E(xc)   XCENC  =       797.65720603
  PAW double counting   =     14758.73374630   -14913.13971078
  entropy T*S    EENTRO =         0.00000000
  eigenvalues    EBANDS =      3466.21101678
  atomic energy  EATOM  =     18122.48301372
  Solvation  Ediel_sol  =         0.00000000
  ---------------------------------------------------
  free energy    TOTEN  =      3600.68762724 eV

  energy without entropy =     3600.68762724  energy(sigma->0) =     3600.68762724


--------------------------------------------------------------------------------------------------------




--------------------------------------- Iteration      1(   2)  ---------------------------------------


     EDDAV:  cpu time    3.9525: real time    3.9652
 BZINTS: Fermi energy: 16.733933;228.000000 electrons
         Band energy:1118.834974;  BLOECHL correction: -0.070117
       DOS:  cpu time    0.0182: real time    0.0183
    --------------------------------------------
      LOOP:  cpu time    3.9707: real time    3.9835

 eigenvalue-minimisations  :  6512
 total energy-change (2. order) :-0.2347376E+04  (-0.2124092E+04)
 number of electron     228.0000000 magnetization      20.0000000
 augmentation part      228.0000000 magnetization      20.0000000

 Free energy of the ion-electron system (eV)
  ---------------------------------------------------
  alpha Z        PSCENC =       990.92775269
  Ewald energy   TEWEN  =    -15966.02222476
  -Hartree energ DENC   =     -3656.16317273
  -exchange      EXHF   =         0.00000000
  -V(xc)+E(xc)   XCENC  =       797.65720603
  PAW double counting   =     14758.73374630   -14913.13971078
  entropy T*S    EENTRO =         0.00000000
  eigenvalues    EBANDS =      1118.83497443
  atomic energy  EATOM  =     18122.48301372
  Solvation  Ediel_sol  =         0.00000000
  ---------------------------------------------------
  free energy    TOTEN  =      1253.31158489 eV

  energy without entropy =     1253.31158489  energy(sigma->0) =     1253.31158489


--------------------------------------------------------------------------------------------------------




--------------------------------------- Iteration      1(   3)  ---------------------------------------


     EDDAV:  cpu time    3.9114: real time    3.9234
 BZINTS: Fermi energy: 12.443641;228.000000 electrons
         Band energy: 141.611861;  BLOECHL correction: -0.024519
       DOS:  cpu time    0.0187: real time    0.0187
    --------------------------------------------
      LOOP:  cpu time    3.9301: real time    3.9421

 eigenvalue-minimisations  :  6416
 total energy-change (2. order) :-0.9772231E+03  (-0.8738773E+03)
 number of electron     228.0000000 magnetization      20.0000000
 augmentation part      228.0000000 magnetization      20.0000000

 Free energy of the ion-electron system (eV)
  ---------------------------------------------------
  alpha Z        PSCENC =       990.92775269
  Ewald energy   TEWEN  =    -15966.02222476
  -Hartree energ DENC   =     -3656.16317273
  -exchange      EXHF   =         0.00000000
  -V(xc)+E(xc)   XCENC  =       797.65720603
  PAW double counting   =     14758.73374630   -14913.13971078
  entropy T*S    EENTRO =         0.00000000
  eigenvalues    EBANDS =       141.61186076
  atomic energy  EATOM  =     18122.48301372
  Solvation  Ediel_sol  =         0.00000000
  ---------------------------------------------------
  free energy    TOTEN  =       276.08847122 eV

  energy without entropy =      276.08847122  energy(sigma->0) =      276.08847122


--------------------------------------------------------------------------------------------------------




--------------------------------------- Iteration      1(   4)  ---------------------------------------


     EDDAV:  cpu time    5.2875: real time    5.3041
 BZINTS: Fermi energy: 11.780152;228.000000 electrons
         Band energy:-285.233448;  BLOECHL correction: -0.006307
       DOS:  cpu time    0.0182: real time    0.0183
    --------------------------------------------
      LOOP:  cpu time    5.3058: real time    5.3224

 eigenvalue-minimisations  :  9356
 total energy-change (2. order) :-0.4268453E+03  (-0.4047380E+03)
 number of electron     228.0000000 magnetization      20.0000000
 augmentation part      228.0000000 magnetization      20.0000000

 Free energy of the ion-electron system (eV)
  ---------------------------------------------------
  alpha Z        PSCENC =       990.92775269
  Ewald energy   TEWEN  =    -15966.02222476
  -Hartree energ DENC   =     -3656.16317273
  -exchange      EXHF   =         0.00000000
  -V(xc)+E(xc)   XCENC  =       797.65720603
  PAW double counting   =     14758.73374630   -14913.13971078
  entropy T*S    EENTRO =         0.00000000
  eigenvalues    EBANDS =      -285.23344772
  atomic energy  EATOM  =     18122.48301372
  Solvation  Ediel_sol  =         0.00000000
  ---------------------------------------------------
  free energy    TOTEN  =      -150.75683725 eV

  energy without entropy =     -150.75683725  energy(sigma->0) =     -150.75683725


--------------------------------------------------------------------------------------------------------




--------------------------------------- Iteration      1(   5)  ---------------------------------------


     EDDAV:  cpu time    6.0720: real time    6.0901
 BZINTS: Fermi energy: 11.310318;228.000000 electrons
         Band energy:-377.647041;  BLOECHL correction: -0.031801
       DOS:  cpu time    0.0183: real time    0.0183
    CHARGE:  cpu time    0.1900: real time    0.1908
    MIXING:  cpu time    0.0034: real time    0.0036
    --------------------------------------------
      LOOP:  cpu time    6.2838: real time    6.3028

 eigenvalue-minimisations  : 10866
 total energy-change (2. order) :-0.9241359E+02  (-0.8921356E+02)
 number of electron     228.0000007 magnetization      18.6766486
 augmentation part       31.0370246 magnetization      14.2490393

 Broyden mixing:
  rms(total) = 0.82572E+01    rms(broyden)= 0.82567E+01
  rms(prec ) = 0.90500E+01
  weight for this iteration     100.00

 Free energy of the ion-electron system (eV)
  ---------------------------------------------------
  alpha Z        PSCENC =       990.92775269
  Ewald energy   TEWEN  =    -15966.02222476
  -Hartree energ DENC   =     -3656.16317273
  -exchange      EXHF   =         0.00000000
  -V(xc)+E(xc)   XCENC  =       797.65720603
  PAW double counting   =     14758.73374630   -14913.13971078
  entropy T*S    EENTRO =         0.00000000
  eigenvalues    EBANDS =      -377.64704081
  atomic energy  EATOM  =     18122.48301372
  Solvation  Ediel_sol  =         0.00000000
  ---------------------------------------------------
  free energy    TOTEN  =      -243.17043035 eV

  energy without entropy =     -243.17043035  energy(sigma->0) =     -243.17043035


--------------------------------------------------------------------------------------------------------




--------------------------------------- Iteration      1(   6)  ---------------------------------------


    POTLOK:  cpu time    0.0951: real time    0.0967
    SETDIJ:  cpu time    0.0205: real time    0.0206
atom =   1  type =  1  l = 0
 
 onsite density matrix
 
spin component  1
 
  1.0567
 
spin component  2
 
  1.0567
 
 occupancies and eigenvectors
 
  o =  1.0567  v =  0.0000  1.0000      0.0000  0.0000
  o =  1.0567  v =  1.0000  0.0000      0.0000  0.0000
atom =   2  type =  1  l = 0
 
 onsite density matrix
 
spin component  1
 
  1.0564
 
spin component  2
 
  1.0562
 
 occupancies and eigenvectors
 
  o =  1.0562  v =  0.0000  1.0000      0.0000  0.0000
  o =  1.0564  v =  1.0000  0.0000      0.0000  0.0000
atom =   3  type =  1  l = 0
 
 onsite density matrix
 
spin component  1
 
  1.0567
 
spin component  2
 
  1.0567
 
 occupancies and eigenvectors
 
  o =  1.0567  v =  0.0000  1.0000      0.0000  0.0000
  o =  1.0567  v =  1.0000  0.0000      0.0000  0.0000
atom =   4  type =  1  l = 0
 
 onsite density matrix
 
spin component  1
 
  1.0567
 
spin component  2
 
  1.0567
 
 occupancies and eigenvectors
 
  o =  1.0567  v =  0.0000  1.0000      0.0000  0.0000
  o =  1.0567  v =  1.0000  0.0000      0.0000  0.0000
atom =   5  type =  1  l = 0
 
 onsite density matrix
 
spin component  1
 
  1.0564
 
spin component  2
 
  1.0562
 
 occupancies and eigenvectors
 
  o =  1.0562  v =  0.0000  1.0000      0.0000  0.0000
  o =  1.0564  v =  1.0000  0.0000      0.0000  0.0000
atom =   6  type =  1  l = 0
 
 onsite density matrix
 
spin component  1
 
  1.0567
 
spin component  2
 
  1.0567
 
 occupancies and eigenvectors
 
  o =  1.0567  v =  0.0000  1.0000      0.0000  0.0000
  o =  1.0567  v =  1.0000  0.0000      0.0000  0.0000
atom =   7  type =  2  l = 2
 
 onsite density matrix
 
spin component  1
 
  0.9416 -0.0000  0.0000  0.0000  0.0000
 -0.0000  0.9450 -0.0000 -0.0000  0.0000
  0.0000 -0.0000  0.3372  0.0000  0.0000
  0.0000 -0.0000  0.0000  0.9450  0.0000
  0.0000  0.0000  0.0000  0.0000  0.3442
 
spin component  2
 
  0.0476 -0.0000 -0.0000 -0.0000  0.0000
 -0.0000  0.0419  0.0000  0.0000  0.0000
 -0.0000  0.0000  0.4620 -0.0000 -0.0000
 -0.0000  0.0000 -0.0000  0.0419 -0.0000
  0.0000  0.0000 -0.0000 -0.0000  0.4615
 
 occupancies and eigenvectors
 
  o =  0.0419  v =  0.0000  0.0000  0.0000  0.0000  0.0000  0.0000  0.9999 -0.0000  0.0112  0.0000      0.0000  0.0000  0.0000  0.0000  0.0000  0.0000  0.0000  0.0000  0.0000  0.0000
  o =  0.0419  v =  0.0000  0.0000  0.0000  0.0000  0.0000  0.0000  0.0112  0.0000 -0.9999  0.0000      0.0000  0.0000  0.0000  0.0000  0.0000  0.0000  0.0000  0.0000  0.0000  0.0000
  o =  0.0476  v =  0.0000  0.0000  0.0000  0.0000  0.0000  1.0000  0.0000  0.0000  0.0000  0.0000      0.0000  0.0000  0.0000  0.0000  0.0000  0.0000  0.0000  0.0000  0.0000  0.0000
  o =  0.3372  v =  0.0000  0.0000 -1.0000 -0.0000  0.0000  0.0000  0.0000  0.0000  0.0000  0.0000      0.0000  0.0000  0.0000  0.0000  0.0000  0.0000  0.0000  0.0000  0.0000  0.0000
  o =  0.3442  v =  0.0000 -0.0000  0.0000 -0.0000  1.0000  0.0000  0.0000  0.0000  0.0000  0.0000      0.0000  0.0000  0.0000  0.0000  0.0000  0.0000  0.0000  0.0000  0.0000  0.0000
  o =  0.4615  v =  0.0000  0.0000  0.0000  0.0000  0.0000  0.0000 -0.0000  0.0000  0.0000  1.0000      0.0000  0.0000  0.0000  0.0000  0.0000  0.0000  0.0000  0.0000  0.0000  0.0000
  o =  0.4620  v =  0.0000  0.0000  0.0000  0.0000  0.0000  0.0000 -0.0000  1.0000  0.0000 -0.0000      0.0000  0.0000  0.0000  0.0000  0.0000  0.0000  0.0000  0.0000  0.0000  0.0000
  o =  0.9416  v =  1.0000  0.0000  0.0000  0.0000  0.0000  0.0000  0.0000  0.0000  0.0000  0.0000      0.0000  0.0000  0.0000  0.0000  0.0000  0.0000  0.0000  0.0000  0.0000  0.0000
  o =  0.9450  v =  0.0000 -0.9989 -0.0000 -0.0465 -0.0000  0.0000  0.0000  0.0000  0.0000  0.0000      0.0000  0.0000  0.0000  0.0000  0.0000  0.0000  0.0000  0.0000  0.0000  0.0000
  o =  0.9450  v =  0.0000  0.0465  0.0000 -0.9989 -0.0000  0.0000  0.0000  0.0000  0.0000  0.0000      0.0000  0.0000  0.0000  0.0000  0.0000  0.0000  0.0000  0.0000  0.0000  0.0000
atom =   8  type =  2  l = 2
 
[...]
 -0.000  -0.002  -0.000  -0.000   0.000  -0.000  -0.000  -0.000  -0.000   0.000  -0.002   0.000  -0.000  -0.000   0.000   0.001
  0.000  -0.000  -0.000   0.000   0.000  -0.000   0.000   0.000  -0.000  -0.001   0.000   0.000   0.000   0.000   0.000   0.000
 -0.000   0.000   0.000   0.000   0.000  -0.000   0.000   0.000  -0.000   0.000   0.000   0.000  -0.003  -0.000  -0.000   0.000
  0.000   0.000  -0.000   0.000  -0.000   0.000  -0.000  -0.000  -0.000   0.000   0.000  -0.003   0.000   0.000  -0.000  -0.000
  0.000   0.000   0.000   0.000   0.000  -0.000  -0.000  -0.000   0.000  -0.004   0.000   0.000   0.000  -0.000   0.002  -0.000
 -0.000   0.006   0.000  -0.001   0.000   0.000   0.001   0.000  -0.006  -0.000   0.000   0.000  -0.000   0.002   0.000  -0.000
  0.000   0.000   0.000   0.000  -0.000  -0.000   0.000   0.000  -0.000  -0.001   0.000   0.001   0.000   0.000   0.000  -0.000
 -0.000   0.003  -0.000  -0.000   0.000  -0.000   0.000   0.000   0.001   0.000   0.003  -0.000   0.000  -0.000   0.000  -0.001
 -0.000  -0.000  -0.000   0.000   0.000   0.000   0.000  -0.000   0.000   0.001   0.000  -0.001   0.000  -0.000  -0.000   0.000
  0.000   0.000   0.000   0.000   0.000   0.000   0.000   0.000   0.000   0.000   0.000  -0.000   0.006  -0.000   0.000   0.000
  0.000   0.000  -0.000   0.000  -0.000   0.000   0.000   0.000   0.000  -0.000  -0.000   0.004   0.000  -0.000   0.000   0.000


------------------------ aborting loop because EDIFF is reached ----------------------------------------


 


 total charge     
 
# of ion       s       p       d       f       tot
--------------------------------------------------
    1        1.999   5.701   0.490   0.193   8.383
    2        2.000   5.702   0.493   0.195   8.390
    3        1.999   5.701   0.490   0.193   8.383
    4        2.000   5.700   0.495   0.190   8.384
    5        2.000   5.700   0.499   0.192   8.392
    6        2.000   5.700   0.495   0.190   8.385
    7        0.360   0.576   4.866   0.000   5.802
    8        0.360   0.576   4.866   0.000   5.802
    9        0.399   0.591   8.315   0.000   9.305
   10        0.421   0.627   8.317   0.000   9.364
   11        0.399   0.591   8.315   0.000   9.305
   12        0.421   0.627   8.317   0.000   9.364
   13        1.562   3.473   0.000   0.000   5.034
   14        1.563   3.456   0.000   0.000   5.019
   15        1.561   3.435   0.000   0.000   4.996
   16        1.558   3.443   0.000   0.000   5.001
   17        1.561   3.435   0.000   0.000   4.996
   18        1.563   3.456   0.000   0.000   5.019
   19        1.562   3.458   0.000   0.000   5.020
   20        1.562   3.459   0.000   0.000   5.021
   21        1.561   3.445   0.000   0.000   5.006
   22        1.562   3.459   0.000   0.000   5.021
   23        1.562   3.458   0.000   0.000   5.020
   24        1.561   3.435   0.000   0.000   4.996
   25        1.562   3.457   0.000   0.000   5.019
   26        1.562   3.458   0.000   0.000   5.020
   27        1.561   3.429   0.000   0.000   4.991
   28        1.562   3.458   0.000   0.000   5.020
   29        1.562   3.457   0.000   0.000   5.019
   30        1.561   3.452   0.000   0.000   5.013
--------------------------------------------------
tot         42.466  99.912  45.958   1.153 189.488

 


 magnetization (x)
 
# of ion       s       p       d       f       tot
--------------------------------------------------
    1        0.001  -0.000   0.007   0.003   0.010
    2        0.001   0.000   0.008   0.004   0.013
    3        0.001  -0.000   0.007   0.003   0.010
    4        0.001   0.001   0.006   0.003   0.010
    5        0.001   0.002   0.008   0.003   0.013
    6        0.000   0.001   0.006   0.003   0.010
    7        0.024   0.031   3.193   0.000   3.247
    8        0.024   0.031   3.193   0.000   3.247
    9        0.007   0.002   1.560   0.000   1.569
   10        0.016   0.009   1.442   0.000   1.467
   11        0.007   0.002   1.560   0.000   1.569
   12        0.016   0.009   1.442   0.000   1.467
   13        0.001  -0.026   0.000   0.000  -0.025
   14        0.004  -0.045   0.000   0.000  -0.040
   15        0.006  -0.081   0.000   0.000  -0.076
   16        0.005  -0.051   0.000   0.000  -0.046
   17        0.006  -0.081   0.000   0.000  -0.076
   18        0.004  -0.045   0.000   0.000  -0.040
   19        0.004  -0.020   0.000   0.000  -0.015
   20        0.004  -0.019   0.000   0.000  -0.015
   21        0.006  -0.066   0.000   0.000  -0.061
   22        0.004  -0.019   0.000   0.000  -0.015
   23        0.005  -0.020   0.000   0.000  -0.015
   24        0.006  -0.076   0.000   0.000  -0.070
   25        0.004  -0.022   0.000   0.000  -0.017
   26        0.005  -0.020   0.000   0.000  -0.016
   27        0.006  -0.082   0.000   0.000  -0.076
   28        0.005  -0.020   0.000   0.000  -0.016
   29        0.004  -0.022   0.000   0.000  -0.017
   30        0.006  -0.059   0.000   0.000  -0.054
--------------------------------------------------
tot          0.184  -0.689  12.433   0.018  11.945

 
    CHARGE:  cpu time    0.1876: real time    0.1880
    FORLOC:  cpu time    0.0117: real time    0.0117
    FORNL :  cpu time    1.1500: real time    1.1533
    STRESS:  cpu time    3.4290: real time    3.4391
    FORCOR:  cpu time    0.0978: real time    0.0993
    FORHAR:  cpu time    0.0213: real time    0.0213
    MIXING:  cpu time    0.0055: real time    0.0055
    OFIELD:  cpu time    0.0001: real time    0.0002

  FORCE on cell =-STRESS in cart. coord.  units (eV):
  Direction    XX          YY          ZZ          XY          YZ          ZX
  --------------------------------------------------------------------------------------
  Alpha Z   990.92775   990.92775   990.92775
  Ewald   -5311.93184 -5311.93184 -5342.21595     0.00000     0.00000    -0.00002
  Hartree  1243.26239  1243.26231  1209.28154    -0.00000     0.00000     0.00002
  E(xc)   -1066.89528 -1066.89528 -1066.72319    -0.00000    -0.00000    -0.00002
  Local    -780.75026  -780.75018  -710.64943    -0.00000    -0.00000    -0.00046
  n-local   428.87185   428.80730   429.76655     1.95705    -0.24458     0.20851
  augment   635.38551   635.38610   633.59640     0.00000    -0.00000     0.00121
  Kinetic  3861.03495  3861.36907  3855.50588    12.79275     0.90498    -0.86139
  Fock        0.00000     0.00000     0.00000     0.00000     0.00000     0.00000
  -------------------------------------------------------------------------------------
  Total       0.04015     0.04015    -0.51045     0.00000     0.00000     0.00000
  in kB       0.18553     0.18553    -2.35871     0.00000     0.00000     0.00000
  external pressure =       -0.66 kB  Pullay stress =        0.00 kB


 VOLUME and BASIS-vectors are now :
 -----------------------------------------------------------------------------
  energy-cutoff  :      520.00
  volume of cell :      346.73
      direct lattice vectors                 reciprocal lattice vectors
     3.866829286 -3.866829286  0.000000000     0.129304907 -0.129304907  0.043124308
     3.866829286  3.866829286  0.000000000     0.129304907  0.129304907  0.043124308
    -3.866829286  0.000000000 11.594388830     0.000000000  0.000000000  0.086248617

  length of vectors
     5.468522419  5.468522419 12.222201973     0.187880877  0.187880877  0.086248617


 FORCES acting on ions
    electron-ion (+dipol)            ewald-force                    non-local-force                 convergence-correction
 -----------------------------------------------------------------------------------------------
   -.392E-03 0.567E-05 -.767E+02   -.101E-03 -.647E-05 0.762E+02   -.173E-17 0.347E-17 0.415E+00   -.346E-05 -.419E-07 0.933E-02
   0.404E-03 -.210E-04 -.133E-02   0.927E-04 0.181E-04 -.314E-03   -.169E-19 0.000E+00 0.000E+00   -.180E-06 0.213E-07 0.114E-04
   -.101E-05 -.633E-05 0.767E+02   -.773E-05 0.453E-05 -.762E+02   0.000E+00 -.347E-17 -.415E+00   0.363E-05 0.628E-07 -.934E-02
   -.392E-03 -.567E-05 -.767E+02   -.101E-03 0.647E-05 0.762E+02   -.347E-17 -.260E-17 0.415E+00   -.346E-05 0.419E-07 0.933E-02
   0.404E-03 0.210E-04 -.133E-02   0.927E-04 -.181E-04 -.314E-03   -.271E-19 -.542E-19 -.542E-19   -.180E-06 -.213E-07 0.114E-04
   -.101E-05 0.633E-05 0.767E+02   -.773E-05 -.453E-05 -.762E+02   0.347E-17 0.434E-17 -.415E+00   0.363E-05 -.628E-07 -.934E-02
   -.207E-04 0.103E-10 -.322E+02   -.250E-05 0.967E-13 0.317E+02   0.694E-17 0.000E+00 0.467E+00   -.140E-06 -.506E-15 0.509E-02
   0.472E-04 0.998E-11 0.322E+02   0.235E-04 0.203E-13 -.317E+02   -.520E-17 0.000E+00 -.467E+00   0.225E-06 -.890E-14 -.509E-02
   0.335E-04 0.244E-10 0.279E+02   0.344E-04 -.396E-13 -.281E+02   0.217E-17 0.000E+00 0.138E+00   0.392E-07 0.429E-14 0.327E-02
   -.255E-04 0.170E-10 -.153E+02   -.236E-04 0.544E-13 0.142E+02   0.000E+00 0.000E+00 0.103E+01   -.421E-06 0.149E-13 -.233E-02
   -.419E-05 0.222E-10 -.279E+02   -.199E-05 -.457E-13 0.281E+02   -.260E-17 0.000E+00 -.138E+00   0.271E-07 0.197E-13 -.326E-02
   -.585E-04 0.211E-10 0.153E+02   -.244E-04 0.116E-12 -.142E+02   0.347E-17 0.000E+00 -.103E+01   0.201E-06 -.215E-13 0.233E-02
   0.479E-03 -.184E-10 -.124E-02   -.371E-04 0.348E-13 -.346E-03   0.000E+00 0.678E-20 0.136E-19   0.137E-06 -.142E-13 0.706E-05
   -.528E-03 -.190E-10 -.631E+02   0.585E-04 -.176E-13 0.574E+02   0.139E-16 0.139E-16 0.564E+01   -.292E-06 0.124E-13 0.705E-02
   0.487E-05 -.198E-10 0.306E+02   -.171E-05 -.203E-15 -.307E+02   0.217E-17 -.434E-18 0.142E+00   -.883E-07 0.246E-13 -.241E-02
   0.520E-03 -.170E-10 -.115E-02   -.774E-04 0.208E-13 -.427E-03   0.678E-20 -.169E-20 0.000E+00   0.111E-06 0.167E-13 0.704E-05
   -.519E-03 -.171E-10 -.306E+02   0.748E-04 0.655E-15 0.307E+02   -.130E-17 0.000E+00 -.142E+00   -.618E-07 -.105E-13 0.240E-02
   0.174E-04 -.126E-10 0.631E+02   0.662E-05 0.123E-13 -.574E+02   -.555E-16 0.000E+00 -.564E+01   0.185E-06 -.141E-13 -.705E-02
   -.464E-03 -.364E+02 0.181E+02   -.538E-04 0.314E+02 -.180E+02   -.138E-15 0.498E+01 -.148E+00   0.217E-07 0.562E-02 -.931E-03
   -.136E-04 -.364E+02 -.181E+02   -.237E-05 0.314E+02 0.180E+02   0.147E-15 0.498E+01 0.148E+00   0.131E-07 0.562E-02 0.931E-03
   0.471E-03 -.304E-05 -.134E-02   0.618E-04 0.238E-05 -.211E-03   0.305E-19 -.678E-20 0.000E+00   -.402E-07 -.109E-07 -.717E-06
   -.464E-03 0.364E+02 0.181E+02   -.538E-04 -.314E+02 -.180E+02   -.100E-15 -.498E+01 -.148E+00   0.217E-07 -.562E-02 -.931E-03
   -.136E-04 0.364E+02 -.181E+02   -.237E-05 -.314E+02 0.180E+02   0.893E-16 -.498E+01 0.148E+00   0.131E-07 -.562E-02 0.931E-03
   0.471E-03 0.304E-05 -.134E-02   0.618E-04 -.238E-05 -.211E-03   -.678E-20 0.102E-19 0.000E+00   -.402E-07 0.109E-07 -.717E-06
   -.364E+02 -.313E-10 0.181E+02   0.314E+02 -.573E-14 -.180E+02   0.498E+01 0.000E+00 -.148E+00   0.562E-02 0.146E-13 -.931E-03
   -.364E+02 -.305E-10 -.181E+02   0.314E+02 -.249E-13 0.180E+02   0.498E+01 0.000E+00 0.148E+00   0.562E-02 -.137E-13 0.931E-03
   0.421E-03 -.294E-10 -.134E-02   0.235E-05 0.376E-13 -.213E-03   0.254E-19 -.339E-19 0.000E+00   0.909E-07 0.793E-14 -.723E-06
   0.364E+02 -.285E-10 0.181E+02   -.314E+02 0.273E-13 -.180E+02   -.498E+01 0.000E+00 -.148E+00   -.562E-02 0.242E-13 -.931E-03
   0.364E+02 -.314E-10 -.181E+02   -.314E+02 0.288E-13 0.180E+02   -.498E+01 0.000E+00 0.148E+00   -.562E-02 0.137E-13 0.931E-03
   0.428E-03 -.281E-10 -.135E-02   -.241E-05 0.401E-13 -.208E-03   -.678E-20 -.136E-19 0.000E+00   0.113E-06 -.140E-13 -.712E-06
 -----------------------------------------------------------------------------------------------
   -.399E-04 -.396E-09 -.210E-01   0.104E-13 0.513E-13 -.995E-13   0.888E-15 -.178E-14 -.833E-16   -.967E-07 0.177E-12 -.109E-05
 
 
 POSITION                                       TOTAL-FORCE (eV/Angst)
 -----------------------------------------------------------------------------------
      0.00000      0.00000      3.82560        -0.000000     -0.000000     -0.092813
     -0.00000      0.00000      7.72959         0.000000      0.000000      0.000000
      3.86683      0.00000      0.03920         0.000000      0.000000      0.092813
      3.86683      0.00000      3.82560        -0.000000     -0.000000     -0.092813
      3.86683      0.00000      7.72959        -0.000000      0.000000      0.000000
      0.00000      0.00000      0.03920         0.000000     -0.000000      0.092813
      1.93341     -1.93341      5.78132         0.000000     -0.000000      0.004362
      1.93342     -1.93341      9.67786         0.000000     -0.000000     -0.004362
      1.93342      1.93341      9.65951         0.000000     -0.000000     -0.016760
      1.93341     -1.93341      1.92066        -0.000000     -0.000000     -0.020315
      1.93341      1.93341      5.79967         0.000000     -0.000000      0.016760
      1.93341      1.93341      1.94413         0.000000     -0.000000      0.020315
      1.93341     -1.93341      7.72959        -0.000000     -0.000000      0.000000
      1.93342     -1.93341      3.89676        -0.000000     -0.000000      0.007180
      1.93341      1.93341     11.58227         0.000000     -0.000000      0.004074
      1.93341      1.93341      7.72959        -0.000000      0.000000      0.000000
      1.93342      1.93341      3.87692        -0.000000     -0.000000     -0.004074
      1.93341     -1.93341     11.56242         0.000000     -0.000000     -0.007180
     -1.93341      0.03796      9.65368         0.000000      0.010923     -0.025966
      1.93341     -3.82887      5.80551        -0.000000      0.010923      0.025966
      5.80024      0.00000      1.93240         0.000000      0.000000      0.000000
      1.93342     -0.03796      9.65368         0.000000     -0.010923     -0.025966
      1.93341     -0.03796      5.80551        -0.000000     -0.010923      0.025966
      1.93341      0.00000      1.93240        -0.000000     -0.000000      0.000000
      0.03796     -1.93341      9.65368         0.010923     -0.000000     -0.025966
      0.03796     -1.93341      5.80551         0.010923     -0.000000      0.025966
      3.86683      1.93341      1.93240         0.000000     -0.000000      0.000000
     -0.03796      1.93341      9.65368        -0.010923     -0.000000     -0.025966
      3.82887     -1.93341      5.80551        -0.010923      0.000000      0.025966
      3.86683     -1.93341      1.93240        -0.000000      0.000000      0.000000
 -----------------------------------------------------------------------------------
    total drift:                               -0.000040     -0.000000     -0.021026


--------------------------------------------------------------------------------------------------------



  FREE ENERGIE OF THE ION-ELECTRON SYSTEM (eV)
  ---------------------------------------------------
  free  energy   TOTEN  =      -213.92818761 eV

  energy  without entropy=     -213.92818761  energy(sigma->0) =     -213.92818761
 


--------------------------------------------------------------------------------------------------------


    POTLOK:  cpu time    0.1005: real time    0.1007


--------------------------------------------------------------------------------------------------------


     LOOP+:  cpu time   94.2480: real time   94.5581
    4ORBIT:  cpu time    0.0000: real time    0.0000
 


 total charge     
 
# of ion       s       p       d       f       tot
--------------------------------------------------
    1        1.999   5.701   0.490   0.193   8.383
    2        2.000   5.702   0.493   0.195   8.390
    3        1.999   5.701   0.490   0.193   8.383
    4        2.000   5.700   0.495   0.190   8.384
    5        2.000   5.700   0.499   0.192   8.392
    6        2.000   5.700   0.495   0.190   8.385
    7        0.360   0.576   4.866   0.000   5.802
    8        0.360   0.576   4.866   0.000   5.802
    9        0.399   0.591   8.315   0.000   9.305
   10        0.421   0.627   8.317   0.000   9.364
   11        0.399   0.591   8.315   0.000   9.305
   12        0.421   0.627   8.317   0.000   9.364
   13        1.562   3.473   0.000   0.000   5.034
   14        1.563   3.456   0.000   0.000   5.019
   15        1.561   3.435   0.000   0.000   4.996
   16        1.558   3.443   0.000   0.000   5.001
   17        1.561   3.435   0.000   0.000   4.996
   18        1.563   3.456   0.000   0.000   5.019
   19        1.562   3.458   0.000   0.000   5.020
   20        1.562   3.459   0.000   0.000   5.021
   21        1.561   3.445   0.000   0.000   5.006
   22        1.562   3.459   0.000   0.000   5.021
   23        1.562   3.458   0.000   0.000   5.020
   24        1.561   3.435   0.000   0.000   4.996
   25        1.562   3.457   0.000   0.000   5.019
   26        1.562   3.458   0.000   0.000   5.020
   27        1.561   3.429   0.000   0.000   4.991
   28        1.562   3.458   0.000   0.000   5.020
   29        1.562   3.457   0.000   0.000   5.019
   30        1.561   3.452   0.000   0.000   5.013
--------------------------------------------------
tot         42.466  99.912  45.958   1.153 189.488

 


 magnetization (x)
 
# of ion       s       p       d       f       tot
--------------------------------------------------
    1        0.001  -0.000   0.007   0.003   0.010
    2        0.001   0.000   0.008   0.004   0.013
    3        0.001  -0.000   0.007   0.003   0.010
    4        0.001   0.001   0.006   0.003   0.010
    5        0.001   0.002   0.008   0.003   0.013
    6        0.000   0.001   0.006   0.003   0.010
    7        0.024   0.031   3.193   0.000   3.247
    8        0.024   0.031   3.193   0.000   3.247
    9        0.007   0.002   1.560   0.000   1.569
   10        0.016   0.009   1.442   0.000   1.467
   11        0.007   0.002   1.560   0.000   1.569
   12        0.016   0.009   1.442   0.000   1.467
   13        0.001  -0.026   0.000   0.000  -0.025
   14        0.004  -0.045   0.000   0.000  -0.040
   15        0.006  -0.081   0.000   0.000  -0.076
   16        0.005  -0.051   0.000   0.000  -0.046
   17        0.006  -0.081   0.000   0.000  -0.076
   18        0.004  -0.045   0.000   0.000  -0.040
   19        0.004  -0.020   0.000   0.000  -0.015
   20        0.004  -0.019   0.000   0.000  -0.015
   21        0.006  -0.066   0.000   0.000  -0.061
   22        0.004  -0.019   0.000   0.000  -0.015
   23        0.005  -0.020   0.000   0.000  -0.015
   24        0.006  -0.076   0.000   0.000  -0.070
   25        0.004  -0.022   0.000   0.000  -0.017
   26        0.005  -0.020   0.000   0.000  -0.016
   27        0.006  -0.082   0.000   0.000  -0.076
   28        0.005  -0.020   0.000   0.000  -0.016
   29        0.004  -0.022   0.000   0.000  -0.017
   30        0.006  -0.059   0.000   0.000  -0.054
--------------------------------------------------
tot          0.184  -0.689  12.433   0.018  11.945

 
 BZINTS: Fermi energy:  7.526800;228.000000 electrons
         Band energy:-287.303372;  BLOECHL correction: -0.036684

 total amount of memory used by VASP MPI-rank0    74212. kBytes
=======================================================================

   base      :      30000. kBytes
   nonlr-proj:       7670. kBytes
   fftplans  :       3227. kBytes
   grid      :       9428. kBytes
   one-center:        294. kBytes
   wavefun   :      23593. kBytes
 
  
  
 General timing and accounting informations for this job:
 ========================================================
  
                  Total CPU time used (sec):      102.653
                            User time (sec):       99.674
                          System time (sec):        2.979
                         Elapsed time (sec):      103.178
  
                   Maximum memory used (kb):      116416.
                   Average memory used (kb):           0.
  
                          Minor page faults:        47058
                          Major page faults:            0
                 Voluntary context switches:         1259
