       N       E                     dE             d eps       ncg     rms          rms(c)
DAV:   1     0.382319220893E+03    0.38232E+03   -0.15147E+04  1000   0.234E+03
DAV:   2     0.651779016538E+02   -0.31714E+03   -0.29401E+03  1024   0.407E+02
DAV:   3    -0.317486438209E+02   -0.96927E+02   -0.92846E+02  1592   0.198E+02
DAV:   4    -0.458807807598E+02   -0.14132E+02   -0.13474E+02  1728   0.632E+01
DAV:   5    -0.465544859909E+02   -0.67371E+00   -0.66857E+00  1416   0.158E+01    0.251E+01
RMM:   6    -0.402359851921E+02    0.63185E+01   -0.87660E+01  1503   0.746E+01    0.396E+01
RMM:   7    -0.395931011689E+02    0.64288E+00   -0.83629E+00  1374   0.340E+01    0.176E+01
RMM:   8    -0.394862530849E+02    0.10685E+00   -0.28122E+00  1437   0.159E+01    0.694E+00
RMM:   9    -0.395751206513E+02   -0.88868E-01   -0.16629E+00  1542   0.888E+00    0.385E+00
RMM:  10    -0.395974415257E+02   -0.22321E-01   -0.39862E-01  1484   0.453E+00    0.129E+00
RMM:  11    -0.396167957287E+02   -0.19354E-01   -0.16716E-01  1414   0.193E+00    0.468E-01
RMM:  12    -0.396212505601E+02   -0.44548E-02   -0.53128E-02  1129   0.115E+00    0.282E-01
RMM:  13    -0.396220855998E+02   -0.83504E-03   -0.11883E-02  1030   0.884E-01    0.179E-01
RMM:  14    -0.396227794450E+02   -0.69385E-03   -0.75006E-03   883   0.661E-01
   1 F= -.39622779E+02 E0= -.39622779E+02  d E =0.000000E+00  mag=     4.0000
