 vasp.5.4.4.18Apr17-6-g9f103f2a35 (build Oct 03 2018 13:58:34) complex          
  
 executed on             LinuxIFC date 2019.06.04  19:22:22
 running on   40 total cores
 distrk:  each k-point on   20 cores,    2 groups
 distr:  one band on NCORES_PER_BAND=  10 cores,    2 groups


--------------------------------------------------------------------------------------------------------


 INCAR:
 POTCAR:    PAW_PBE La 06Sep2000                  
 POTCAR:    PAW_PBE Mn 06Sep2000                  
 POTCAR:    PAW_PBE O 08Apr2002                   

 ----------------------------------------------------------------------------- 
|                                                                             |
|           W    W    AA    RRRRR   N    N  II  N    N   GGGG   !!!           |
|           W    W   A  A   R    R  NN   N  II  NN   N  G    G  !!!           |
|           W    W  A    A  R    R  N N  N  II  N N  N  G       !!!           |
|           W WW W  AAAAAA  RRRRR   N  N N  II  N  N N  G  GGG   !            |
|           WW  WW  A    A  R   R   N   NN  II  N   NN  G    G                |
|           W    W  A    A  R    R  N    N  II  N    N   GGGG   !!!           |
|                                                                             |
|      You have enabled k-point parallelism (KPAR>1).                         |
|      This developmental code was originally  written by Paul Kent at ORNL,  |
|      and carefully double checked in Vienna.                                |
|      GW as well as linear response parallelism added by Martijn Marsman     |
|      and Georg Kresse.                                                      |
|      Carefully verify results versus KPAR=1.                                |
|      Report problems to Paul Kent and Vienna.                               |
|                                                                             |
 ----------------------------------------------------------------------------- 

 POTCAR:    PAW_PBE La 06Sep2000                  
   VRHFIN =La : [core=Kr4d]                                                     
   LEXCH  = PE                                                                  
   EATOM  =   865.9763 eV,   63.6475 Ry                                         
                                                                                
   TITEL  = PAW_PBE La 06Sep2000                                                
   LULTRA =        F    use ultrasoft PP ?                                      
   IUNSCR =        1    unscreen: 0-lin 1-nonlin 2-no                           
   RPACOR =    2.300    partial core radius                                     
   POMASS =  138.900; ZVAL   =   11.000    mass and valenz                      
   RCORE  =    2.800    outmost cutoff radius                                   
   RWIGS  =    2.900; RWIGS  =    1.535    wigner-seitz radius (au A)           
   ENMAX  =  219.292; ENMIN  =  164.469 eV                                      
   RCLOC  =    1.601    cutoff for local pot                                    
   LCOR   =        T    correct aug charges                                     
   LPAW   =        T    paw PP                                                  
   EAUG   =  583.575                                                            
   DEXC   =    0.000                                                            
   RMAX   =    2.853    core radius for proj-oper                               
   RAUG   =    1.300    factor for augmentation sphere                          
   RDEP   =    2.802    radius for radial grids                                 
   RDEPT  =    2.156    core radius for aug-charge                              
                                                                                
   Atomic configuration                                                         
   14 entries                                                                   
     n  l   j            E        occ.                                          
     1  0  0.50    -38741.0879   2.0000                                         
     2  0  0.50     -6166.6801   2.0000                                         
     2  1  1.50     -5526.1593   6.0000                                         
     3  0  0.50     -1319.0200   2.0000                                         
     3  1  1.50     -1114.5963   6.0000                                         
     3  2  2.50      -821.1793  10.0000                                         
     4  0  0.50      -266.3851   2.0000                                         
     4  1  1.50      -199.9276   6.0000                                         
     4  2  2.50      -103.8239  10.0000                                         
     5  0  0.50       -38.9172   2.0000                                         
     6  0  0.50        -3.6792   2.0000                                         
     5  1  1.50       -22.3948   6.0000                                         
     5  2  2.50        -3.0911   0.9999                                         
     4  3  2.50        -4.3603   0.0001                                         
   Description                                                                  
     l       E           TYP  RCUT    TYP  RCUT                                 
     0    -38.9171645     23  2.800                                             
     0     -3.6792381     23  2.800                                             
     1    -22.3948300     23  2.500                                             
     1     27.2116520     23  2.500                                             
     2     -3.0910934     23  2.500                                             
     2      1.0119135     23  2.500                                             
     3     -4.3602911     23  2.800                                             
     3     -5.7208737     23  2.800                                             
  local pseudopotential read in
  partial core-charges read in
  partial kinetic energy density read in
  atomic valenz-charges read in
  non local Contribution for L=           0  read in
    real space projection operators read in
  non local Contribution for L=           0  read in
    real space projection operators read in
  non local Contribution for L=           1  read in
    real space projection operators read in
  non local Contribution for L=           1  read in
    real space projection operators read in
  non local Contribution for L=           2  read in
    real space projection operators read in
  non local Contribution for L=           2  read in
    real space projection operators read in
  non local Contribution for L=           3  read in
    real space projection operators read in
  non local Contribution for L=           3  read in
    real space projection operators read in
    PAW grid and wavefunctions read in
 
   number of l-projection  operators is LMAX  =           8
   number of lm-projection operators is LMMAX =          32
 
 POTCAR:    PAW_PBE Mn 06Sep2000                  
   VRHFIN =Mn: d6 s1                                                            
   LEXCH  = PE                                                                  
   EATOM  =   416.7541 eV,   30.6306 Ry                                         
                                                                                
   TITEL  = PAW_PBE Mn 06Sep2000                                                
   LULTRA =        F    use ultrasoft PP ?                                      
   IUNSCR =        1    unscreen: 0-lin 1-nonlin 2-no                           
   RPACOR =    2.000    partial core radius                                     
   POMASS =   54.938; ZVAL   =    7.000    mass and valenz                      
   RCORE  =    2.300    outmost cutoff radius                                   
   RWIGS  =    2.500; RWIGS  =    1.323    wigner-seitz radius (au A)           
   ENMAX  =  269.864; ENMIN  =  202.398 eV                                      
   RCLOC  =    1.725    cutoff for local pot                                    
   LCOR   =        T    correct aug charges                                     
   LPAW   =        T    paw PP                                                  
   EAUG   =  500.711                                                            
   DEXC   =    0.000                                                            
   RMAX   =    2.343    core radius for proj-oper                               
   RAUG   =    1.300    factor for augmentation sphere                          
   RDEP   =    2.338    radius for radial grids                                 
   RDEPT  =    1.911    core radius for aug-charge                              
                                                                                
   Atomic configuration                                                         
    9 entries                                                                   
     n  l   j            E        occ.                                          
     1  0  0.50     -6424.8288   2.0000                                         
     2  0  0.50      -739.1154   2.0000                                         
     2  1  1.50      -625.3949   6.0000                                         
     3  0  0.50       -81.6100   2.0000                                         
     3  1  1.50       -50.4667   6.0000                                         
     3  2  2.50        -3.3745   6.0000                                         
     4  0  0.50        -4.1331   1.0000                                         
     4  1  0.50        -4.0817   0.0000                                         
     4  3  2.50        -1.3606   0.0000                                         
   Description                                                                  
     l       E           TYP  RCUT    TYP  RCUT                                 
     2     -3.3744664     23  2.300                                             
     2     -4.7350490     23  2.300                                             
     0     -4.1331408     23  2.300                                             
     0      7.6656614     23  2.300                                             
     1     -2.7211652     23  2.300                                             
     1     20.4087390     23  2.300                                             
  local pseudopotential read in
  partial core-charges read in
  partial kinetic energy density read in
  atomic valenz-charges read in
  non local Contribution for L=           2  read in
    real space projection operators read in
  non local Contribution for L=           2  read in
    real space projection operators read in
  non local Contribution for L=           0  read in
    real space projection operators read in
  non local Contribution for L=           0  read in
    real space projection operators read in
  non local Contribution for L=           1  read in
    real space projection operators read in
  non local Contribution for L=           1  read in
    real space projection operators read in
    PAW grid and wavefunctions read in
 
   number of l-projection  operators is LMAX  =           6
   number of lm-projection operators is LMMAX =          18
 
 POTCAR:    PAW_PBE O 08Apr2002                   
   VRHFIN =O: s2p4                                                              
   LEXCH  = PE                                                                  
   EATOM  =   432.3788 eV,   31.7789 Ry                                         
                                                                                
   TITEL  = PAW_PBE O 08Apr2002                                                 
   LULTRA =        F    use ultrasoft PP ?                                      
   IUNSCR =        1    unscreen: 0-lin 1-nonlin 2-no                           
   RPACOR =    1.200    partial core radius                                     
   POMASS =   16.000; ZVAL   =    6.000    mass and valenz                      
   RCORE  =    1.520    outmost cutoff radius                                   
   RWIGS  =    1.550; RWIGS  =    0.820    wigner-seitz radius (au A)           
   ENMAX  =  400.000; ENMIN  =  300.000 eV                                      
   ICORE  =        2    local potential                                         
   LCOR   =        T    correct aug charges                                     
   LPAW   =        T    paw PP                                                  
   EAUG   =  605.392                                                            
   DEXC   =    0.000                                                            
   RMAX   =    1.553    core radius for proj-oper                               
   RAUG   =    1.300    factor for augmentation sphere                          
   RDEP   =    1.550    radius for radial grids                                 
   RDEPT  =    1.329    core radius for aug-charge                              
                                                                                
   Atomic configuration                                                         
    4 entries                                                                   
     n  l   j            E        occ.                                          
     1  0  0.50      -514.6923   2.0000                                         
     2  0  0.50       -23.9615   2.0000                                         
     2  1  0.50        -9.0305   4.0000                                         
     3  2  1.50        -9.5241   0.0000                                         
   Description                                                                  
     l       E           TYP  RCUT    TYP  RCUT                                 
     0    -23.9615318     23  1.200                                             
     0     -9.5240782     23  1.200                                             
     1     -9.0304911     23  1.520                                             
     1      8.1634956     23  1.520                                             
     2     -9.5240782      7  1.500                                             
  local pseudopotential read in
  partial core-charges read in
  partial kinetic energy density read in
  kinetic energy density of atom read in
  atomic valenz-charges read in
  non local Contribution for L=           0  read in
    real space projection operators read in
  non local Contribution for L=           0  read in
    real space projection operators read in
  non local Contribution for L=           1  read in
    real space projection operators read in
  non local Contribution for L=           1  read in
    real space projection operators read in
    PAW grid and wavefunctions read in
 
   number of l-projection  operators is LMAX  =           4
   number of lm-projection operators is LMMAX =           8
 

 ----------------------------------------------------------------------------- 
|                                                                             |
|  ADVICE TO THIS USER RUNNING 'VASP/VAMP'   (HEAR YOUR MASTER'S VOICE ...):  |
|                                                                             |
|      You have a (more or less) 'small supercell' and for smaller cells      |
|      it is recommended  to use the reciprocal-space projection scheme!      |
|      The real space optimization is not  efficient for small cells and it   |
|      is also less accurate ...                                              |
|      Therefore set LREAL=.FALSE. in the  INCAR file                         |
|                                                                             |
 ----------------------------------------------------------------------------- 

 Optimization of the real space projectors (new method)

 maximal supplied QI-value         = 13.42
 optimisation between [QCUT,QGAM] = [ 11.67, 23.35] = [ 38.16,152.62] Ry 
 Optimized for a Real-space Cutoff    1.63 Angstroem

   l    n(q)    QCUT    max X(q) W(low)/X(q) W(high)/X(q)  e(spline) 
   0     11    11.673    13.882    0.27E-04    0.79E-05    0.11E-06
   0     11    11.673    12.184    0.39E-04    0.13E-04    0.19E-06
   1     11    11.673     4.523    0.73E-05    0.76E-05    0.12E-06
   1     11    11.673     4.424    0.87E-05    0.13E-04    0.19E-06
   2     10    11.673    52.481    0.65E-04    0.36E-04    0.18E-06
   2     10    11.673    38.501    0.61E-04    0.33E-04    0.17E-06
   3     10    11.673    65.631    0.17E-03    0.14E-03    0.37E-06
   3     10    11.673    56.854    0.17E-03    0.14E-03    0.37E-06
 Optimization of the real space projectors (new method)

 maximal supplied QI-value         = 16.25
 optimisation between [QCUT,QGAM] = [ 11.54, 23.24] = [ 37.28,151.24] Ry 
 Optimized for a Real-space Cutoff    1.53 Angstroem

   l    n(q)    QCUT    max X(q) W(low)/X(q) W(high)/X(q)  e(spline) 
   2     10    11.539   110.144    0.12E-03    0.13E-03    0.25E-06
   2     10    11.539   103.200    0.12E-03    0.13E-03    0.25E-06
   0     11    11.539    68.437    0.46E-04    0.21E-04    0.32E-06
   0     11    11.539    33.971    0.37E-04    0.19E-04    0.29E-06
   1     10    11.539    17.065    0.51E-04    0.22E-04    0.13E-06
   1     10    11.539    12.540    0.41E-04    0.18E-04    0.11E-06
 Optimization of the real space projectors (new method)

 maximal supplied QI-value         = 24.76
 optimisation between [QCUT,QGAM] = [ 11.64, 23.27] = [ 37.91,151.63] Ry 
 Optimized for a Real-space Cutoff    1.14 Angstroem

   l    n(q)    QCUT    max X(q) W(low)/X(q) W(high)/X(q)  e(spline) 
   0      8    11.635    20.381    0.10E-03    0.33E-03    0.24E-06
   0      8    11.635    15.268    0.11E-03    0.35E-03    0.26E-06
   1      7    11.635     5.964    0.24E-03    0.31E-03    0.30E-06
   1      7    11.635     5.382    0.22E-03    0.25E-03    0.26E-06
  PAW_PBE La 06Sep2000                  :
 energy of atom  1       EATOM= -865.9763
 kinetic energy error for atom=    0.0009 (will be added to EATOM!!)
  PAW_PBE Mn 06Sep2000                  :
 energy of atom  2       EATOM= -416.7541
 kinetic energy error for atom=    0.0024 (will be added to EATOM!!)
  PAW_PBE O 08Apr2002                   :
 energy of atom  3       EATOM= -432.3788
 kinetic energy error for atom=    0.0208 (will be added to EATOM!!)
 
 
 POSCAR: SCEL1_1_1_1_0_0_0/0                     
  positions in direct lattice
  velocities in cartesian coordinates
 exchange correlation table for  LEXCH =        8
   RHO(1)=    0.500       N(1)  =     2000
   RHO(2)=  100.500       N(2)  =     4000
 


--------------------------------------------------------------------------------------------------------


 ion  position               nearest neighbor table
   1  0.000  0.000  0.000-   3 2.79   4 2.79   5 2.79   3 2.79   4 2.79   3 2.79   5 2.79   3 2.79
                             4 2.79   5 2.79   4 2.79   5 2.79   2 3.41   2 3.41   2 3.41   2 3.41
   2  0.500  0.500  0.500-   3 1.97   4 1.97   5 1.97   5 1.97   4 1.97   3 1.97   1 3.41   1 3.41
                             1 3.41   1 3.41   1 3.41   1 3.41   1 3.41   1 3.41
   3  0.000  0.500  0.500-   2 1.97   2 1.97   1 2.79   1 2.79   1 2.79   1 2.79
   4  0.500  0.000  0.500-   2 1.97   2 1.97   1 2.79   1 2.79   1 2.79   1 2.79
   5  0.500  0.500  0.000-   2 1.97   2 1.97   1 2.79   1 2.79   1 2.79   1 2.79
 
  LATTYP: Found a simple cubic cell.
 ALAT       =     3.9401447100
  
  Lattice vectors:
  
 A1 = (   3.9401447100,   0.0000000000,   0.0000000000)
 A2 = (   0.0000000000,   3.9401447100,   0.0000000000)
 A3 = (   0.0000000000,   0.0000000000,   3.9401447100)


Analysis of symmetry for initial positions (statically):
=====================================================================
 Subroutine PRICEL returns:
 Original cell was already a primitive cell.
 

 Routine SETGRP: Setting up the symmetry group for a 
 simple cubic supercell.


 Subroutine GETGRP returns: Found 48 space group operations
 (whereof 48 operations were pure point group operations)
 out of a pool of 48 trial point group operations.


The static configuration has the point symmetry O_h .


Analysis of symmetry for dynamics (positions and initial velocities):
=====================================================================
 Subroutine PRICEL returns:
 Original cell was already a primitive cell.
 

 Routine SETGRP: Setting up the symmetry group for a 
 simple cubic supercell.


 Subroutine GETGRP returns: Found 48 space group operations
 (whereof 48 operations were pure point group operations)
 out of a pool of 48 trial point group operations.


The dynamic configuration has the point symmetry O_h .


Analysis of structural, dynamic, and magnetic symmetry:
=====================================================================
 Subroutine PRICEL returns:
 Original cell was already a primitive cell.
 

 Routine SETGRP: Setting up the symmetry group for a 
 simple cubic supercell.


 Subroutine GETGRP returns: Found 48 space group operations
 (whereof 48 operations were pure point group operations)
 out of a pool of 48 trial point group operations.


The magnetic configuration has the point symmetry O_h .


 Subroutine INISYM returns: Found 48 space group operations
 (whereof 48 operations are pure point group operations),
 and found     1 'primitive' translations

 
 
 KPOINTS: Automatic mesh                          

Automatic generation of k-mesh.
 generate k-points for:    5    5    5
Space group operators:
 irot       det(A)        alpha          n_x          n_y          n_z        tau_x        tau_y        tau_z
    1     1.000000     0.000000     1.000000     0.000000     0.000000     0.000000     0.000000     0.000000
    2    -1.000000     0.000000     1.000000     0.000000     0.000000     0.000000     0.000000     0.000000
    3     1.000000   120.000000    -0.577350    -0.577350    -0.577350     0.000000     0.000000     0.000000
    4    -1.000000   120.000000    -0.577350    -0.577350    -0.577350     0.000000     0.000000     0.000000
    5     1.000000   120.000000     0.577350     0.577350     0.577350     0.000000     0.000000     0.000000
    6    -1.000000   120.000000     0.577350     0.577350     0.577350     0.000000     0.000000     0.000000
    7     1.000000    90.000000     0.000000     0.000000    -1.000000     0.000000     0.000000     0.000000
    8    -1.000000    90.000000     0.000000     0.000000    -1.000000     0.000000     0.000000     0.000000
    9     1.000000   180.000000     0.000000     0.707107     0.707107     0.000000     0.000000     0.000000
   10    -1.000000   180.000000     0.000000     0.707107     0.707107     0.000000     0.000000     0.000000
   11     1.000000    90.000000     0.000000     1.000000     0.000000     0.000000     0.000000     0.000000
   12    -1.000000    90.000000     0.000000     1.000000     0.000000     0.000000     0.000000     0.000000
   13     1.000000   180.000000     0.000000     0.000000     1.000000     0.000000     0.000000     0.000000
   14    -1.000000   180.000000     0.000000     0.000000     1.000000     0.000000     0.000000     0.000000
   15     1.000000   120.000000    -0.577350     0.577350     0.577350     0.000000     0.000000     0.000000
   16    -1.000000   120.000000    -0.577350     0.577350     0.577350     0.000000     0.000000     0.000000
   17     1.000000   120.000000    -0.577350     0.577350    -0.577350     0.000000     0.000000     0.000000
   18    -1.000000   120.000000    -0.577350     0.577350    -0.577350     0.000000     0.000000     0.000000
   19     1.000000    90.000000     0.000000     0.000000     1.000000     0.000000     0.000000     0.000000
   20    -1.000000    90.000000     0.000000     0.000000     1.000000     0.000000     0.000000     0.000000
   21     1.000000    90.000000    -1.000000     0.000000     0.000000     0.000000     0.000000     0.000000
   22    -1.000000    90.000000    -1.000000     0.000000     0.000000     0.000000     0.000000     0.000000
   23     1.000000   180.000000     0.707107     0.000000     0.707107     0.000000     0.000000     0.000000
   24    -1.000000   180.000000     0.707107     0.000000     0.707107     0.000000     0.000000     0.000000
   25     1.000000   120.000000     0.577350    -0.577350     0.577350     0.000000     0.000000     0.000000
   26    -1.000000   120.000000     0.577350    -0.577350     0.577350     0.000000     0.000000     0.000000
   27     1.000000   120.000000    -0.577350    -0.577350     0.577350     0.000000     0.000000     0.000000
   28    -1.000000   120.000000    -0.577350    -0.577350     0.577350     0.000000     0.000000     0.000000
   29     1.000000   180.000000     1.000000     0.000000     0.000000     0.000000     0.000000     0.000000
   30    -1.000000   180.000000     1.000000     0.000000     0.000000     0.000000     0.000000     0.000000
   31     1.000000    90.000000     0.000000    -1.000000     0.000000     0.000000     0.000000     0.000000
   32    -1.000000    90.000000     0.000000    -1.000000     0.000000     0.000000     0.000000     0.000000
   33     1.000000   180.000000     0.707107     0.707107     0.000000     0.000000     0.000000     0.000000
   34    -1.000000   180.000000     0.707107     0.707107     0.000000     0.000000     0.000000     0.000000
   35     1.000000    90.000000     1.000000     0.000000     0.000000     0.000000     0.000000     0.000000
   36    -1.000000    90.000000     1.000000     0.000000     0.000000     0.000000     0.000000     0.000000
   37     1.000000   120.000000     0.577350    -0.577350    -0.577350     0.000000     0.000000     0.000000
   38    -1.000000   120.000000     0.577350    -0.577350    -0.577350     0.000000     0.000000     0.000000
   39     1.000000   180.000000     0.000000     1.000000     0.000000     0.000000     0.000000     0.000000
   40    -1.000000   180.000000     0.000000     1.000000     0.000000     0.000000     0.000000     0.000000
   41     1.000000   120.000000     0.577350     0.577350    -0.577350     0.000000     0.000000     0.000000
   42    -1.000000   120.000000     0.577350     0.577350    -0.577350     0.000000     0.000000     0.000000
   43     1.000000   180.000000     0.000000    -0.707107     0.707107     0.000000     0.000000     0.000000
   44    -1.000000   180.000000     0.000000    -0.707107     0.707107     0.000000     0.000000     0.000000
   45     1.000000   180.000000     0.707107    -0.707107     0.000000     0.000000     0.000000     0.000000
   46    -1.000000   180.000000     0.707107    -0.707107     0.000000     0.000000     0.000000     0.000000
   47     1.000000   180.000000     0.707107     0.000000    -0.707107     0.000000     0.000000     0.000000
   48    -1.000000   180.000000     0.707107     0.000000    -0.707107     0.000000     0.000000     0.000000
 
 Subroutine IBZKPT returns following result:
 ===========================================
 
 Found     10 irreducible k-points:
 
 Following reciprocal coordinates:
            Coordinates               Weight
  0.000000  0.000000  0.000000      1.000000
  0.200000  0.000000  0.000000      6.000000
  0.400000  0.000000  0.000000      6.000000
  0.200000  0.200000  0.000000     12.000000
  0.400000  0.200000  0.000000     24.000000
  0.400000  0.400000  0.000000     12.000000
  0.200000  0.200000  0.200000      8.000000
  0.400000  0.200000  0.200000     24.000000
  0.400000  0.400000  0.200000     24.000000
  0.400000  0.400000  0.400000      8.000000
 
 Following cartesian coordinates:
            Coordinates               Weight
  0.000000  0.000000  0.000000      1.000000
  0.050760  0.000000  0.000000      6.000000
  0.101519  0.000000  0.000000      6.000000
  0.050760  0.050760  0.000000     12.000000
  0.101519  0.050760  0.000000     24.000000
  0.101519  0.101519  0.000000     12.000000
  0.050760  0.050760  0.050760      8.000000
  0.101519  0.050760  0.050760     24.000000
  0.101519  0.101519  0.050760     24.000000
  0.101519  0.101519  0.101519      8.000000
 
 TETIRR: Found     57 inequivalent tetrahedra from      750


--------------------------------------------------------------------------------------------------------




 Dimension of arrays:
   k-points           NKPTS =     10   k-points in BZ     NKDIM =     10   number of bands    NBANDS=     24
   number of dos      NEDOS =    301   number of ions     NIONS =      5
   non local maximal  LDIM  =      8   non local SUM 2l+1 LMDIM =     32
   total plane-waves  NPLWV =  27000
   max r-space proj   IRMAX =   8016   max aug-charges    IRDMAX=  23261
   dimension x,y,z NGX =    30 NGY =   30 NGZ =   30
   dimension x,y,z NGXF=    60 NGYF=   60 NGZF=   60
   support grid    NGXF=    60 NGYF=   60 NGZF=   60
   ions per type =               1   1   3
   NGX,Y,Z   is equivalent  to a cutoff of  12.66, 12.66, 12.66 a.u.
   NGXF,Y,Z  is equivalent  to a cutoff of  25.32, 25.32, 25.32 a.u.

 SYSTEM =  final                                   
 POSCAR =  SCEL1_1_1_1_0_0_0/0                     

 Startparameter for this run:
   NWRITE =      2    write-flag & timer
   PREC   = accura    normal or accurate (medium, high low for compatibility)
   ISTART =      0    job   : 0-new  1-cont  2-samecut
   ICHARG =      1    charge: 1-file 2-atom 10-const
   ISPIN  =      2    spin polarized calculation?
   LNONCOLLINEAR =      F non collinear calculations
   LSORBIT =      F    spin-orbit coupling
   INIWAV =      1    electr: 0-lowe 1-rand  2-diag
   LASPH  =      F    aspherical Exc in radial PAW
   METAGGA=      F    non-selfconsistent MetaGGA calc.

 Electronic Relaxation 1
   ENCUT  =  520.0 eV  38.22 Ry    6.18 a.u.   7.33  7.33  7.33*2*pi/ulx,y,z
   ENINI  =  520.0     initial cutoff
   ENAUG  =  605.4 eV  augmentation charge cutoff
   NELM   =    100;   NELMIN=  2; NELMDL= -5     # of ELM steps 
   EDIFF  = 0.1E-02   stopping-criterion for ELM
   LREAL  =      T    real-space projection
   NLSPLINE    = F    spline interpolate recip. space projectors
   LCOMPAT=      F    compatible to vasp.4.4
   GGA_COMPAT  = T    GGA compatible to vasp.4.4-vasp.4.6
   LMAXPAW     = -100 max onsite density
   LMAXMIX     =    6 max onsite mixed and CHGCAR
   VOSKOWN=      0    Vosko Wilk Nusair interpolation
   ROPT   =   -0.00025  -0.00025  -0.00025
 Ionic relaxation
   EDIFFG = 0.1E-01   stopping-criterion for IOM
   NSW    =      0    number of steps for IOM
   NBLOCK =      1;   KBLOCK =      1    inner block; outer block 
   IBRION =     -1    ionic relax: 0-MD 1-quasi-New 2-CG
   NFREE  =      0    steps in history (QN), initial steepest desc. (CG)
   ISIF   =      2    stress and relaxation
   IWAVPR =     10    prediction:  0-non 1-charg 2-wave 3-comb
   ISYM   =      2    0-nonsym 1-usesym 2-fastsym
   LCORR  =      T    Harris-Foulkes like correction to forces

   POTIM  = 0.5000    time-step for ionic-motion
   TEIN   =    0.0    initial temperature
   TEBEG  =    0.0;   TEEND  =   0.0 temperature during run
   SMASS  =  -3.00    Nose mass-parameter (am)
   estimated Nose-frequenzy (Omega)   =  0.10E-29 period in steps =****** mass=  -0.355E-27a.u.
   SCALEE = 1.0000    scale energy and forces
   NPACO  =    256;   APACO  = 16.0  distance and # of slots for P.C.
   PSTRESS=    0.0 pullay stress

  Mass of Ions in am
   POMASS = 138.90 54.94 16.00
  Ionic Valenz
   ZVAL   =  11.00  7.00  6.00
  Atomic Wigner-Seitz radii
   RWIGS  =  -1.00 -1.00 -1.00
  virtual crystal weights 
   VCA    =   1.00  1.00  1.00
   NELECT =      36.0000    total number of electrons
   NUPDOWN=      -1.0000    fix difference up-down

 DOS related values:
   EMIN   =  10.00;   EMAX   =-10.00  energy-range for DOS
   EFERMI =   0.00
   ISMEAR =    -5;   SIGMA  =   0.05  broadening in eV -4-tet -1-fermi 0-gaus

 Electronic relaxation 2 (details)
   IALGO  =     68    algorithm
   LDIAG  =      T    sub-space diagonalisation (order eigenvalues)
   LSUBROT=      F    optimize rotation matrix (better conditioning)
   TURBO    =      0    0=normal 1=particle mesh
   IRESTART =      0    0=no restart 2=restart with 2 vectors
   NREBOOT  =      0    no. of reboots
   NMIN     =      0    reboot dimension
   EREF     =   0.00    reference energy to select bands
   IMIX   =      4    mixing-type and parameters
     AMIX     =   0.40;   BMIX     =  1.00
     AMIX_MAG =   1.60;   BMIX_MAG =  1.00
     AMIN     =   0.10
     WC   =   100.;   INIMIX=   1;  MIXPRE=   1;  MAXMIX= -45

 Intra band minimization:
   WEIMIN = 0.0000     energy-eigenvalue tresh-hold
   EBREAK =  0.10E-04  absolut break condition
   DEPER  =   0.30     relativ break condition  

   TIME   =   0.40     timestep for ELM

  volume/ion in A,a.u.               =      12.23        82.56
  Fermi-wavevector in a.u.,A,eV,Ry     =   1.371924  2.592561 25.608564  1.882176
  Thomas-Fermi vector in A             =   2.497578
 
 Write flags
   LWAVE        =      F    write WAVECAR
   LDOWNSAMPLE  =      F    k-point downsampling of WAVECAR
   LCHARG       =      T    write CHGCAR
   LVTOT        =      F    write LOCPOT, total local potential
   LVHAR        =      F    write LOCPOT, Hartree potential only
   LELF         =      F    write electronic localiz. function (ELF)
   LORBIT       =     11    0 simple, 1 ext, 2 COOP (PROOUT), +10 PAW based schemes


 Dipole corrections
   LMONO  =      F    monopole corrections only (constant potential shift)
   LDIPOL =      F    correct potential (dipole corrections)
   IDIPOL =      0    1-x, 2-y, 3-z, 4-all directions 
   EPSILON=  1.0000000 bulk dielectric constant

 LDA+U is selected, type is set to LDAUTYPE =  2
   angular momentum for each species LDAUL =     0    2    0
   U (eV)           for each species LDAUU =   0.0  3.9  0.0
   J (eV)           for each species LDAUJ =   0.0  0.0  0.0
 Exchange correlation treatment:
   GGA     =    --    GGA type
   LEXCH   =     8    internal setting for exchange type
   VOSKOWN=      0    Vosko Wilk Nusair interpolation
   LHFCALC =     F    Hartree Fock is set to
   LHFONE  =     F    Hartree Fock one center treatment
   AEXX    =    0.0000 exact exchange contribution

 Linear response parameters
   LEPSILON=     F    determine dielectric tensor
   LRPA    =     F    only Hartree local field effects (RPA)
   LNABLA  =     F    use nabla operator in PAW spheres
   LVEL    =     F    velocity operator in full k-point grid
   LINTERFAST=   F  fast interpolation
   KINTER  =     0    interpolate to denser k-point grid
   CSHIFT  =0.1000    complex shift for real part using Kramers Kronig
   OMEGAMAX=  -1.0    maximum frequency
   DEG_THRESHOLD= 0.2000000E-02 threshold for treating states as degnerate
   RTIME   =   -0.100 relaxation time in fs
  (WPLASMAI=    0.000 imaginary part of plasma frequency in eV, 0.658/RTIME)
   DFIELD  = 0.0000000 0.0000000 0.0000000 field for delta impulse in time
 
 Orbital magnetization related:
   ORBITALMAG=     F  switch on orbital magnetization
   LCHIMAG   =     F  perturbation theory with respect to B field
   DQ        =  0.001000  dq finite difference perturbation B field
   LLRAUG    =     F  two centre corrections for induced B field



--------------------------------------------------------------------------------------------------------


 Static calculation
 charge density and potential will be updated during run
 spin polarized calculation
 RMM-DIIS sequential band-by-band and
  variant of blocked Davidson during initial phase
 perform sub-space diagonalisation
    before iterative eigenvector-optimisation
 modified Broyden-mixing scheme, WC =      100.0
 initial mixing is a Kerker type mixing with AMIX =  0.4000 and BMIX =      1.0000
 Hartree-type preconditioning will be used
 using additional bands            6
 real space projection scheme for non local part
 use partial core corrections
 calculate Harris-corrections to forces 
   (improved forces if not selfconsistent)
 use gradient corrections 
 use of overlap-Matrix (Vanderbilt PP)
 Fermi weights with tetrahedron method with Bloechl corrections


--------------------------------------------------------------------------------------------------------


  energy-cutoff  :      520.00
  volume of cell :       61.17
      direct lattice vectors                 reciprocal lattice vectors
     3.940144710  0.000000000  0.000000000     0.253797785  0.000000000  0.000000000
     0.000000000  3.940144710  0.000000000     0.000000000  0.253797785  0.000000000
     0.000000000  0.000000000  3.940144710     0.000000000  0.000000000  0.253797785

  length of vectors
     3.940144710  3.940144710  3.940144710     0.253797785  0.253797785  0.253797785


 
 k-points in units of 2pi/SCALE and weight: Automatic mesh                          
   0.00000000  0.00000000  0.00000000       0.008
   0.05075956  0.00000000  0.00000000       0.048
   0.10151911  0.00000000  0.00000000       0.048
   0.05075956  0.05075956  0.00000000       0.096
   0.10151911  0.05075956  0.00000000       0.192
   0.10151911  0.10151911  0.00000000       0.096
   0.05075956  0.05075956  0.05075956       0.064
   0.10151911  0.05075956  0.05075956       0.192
   0.10151911  0.10151911  0.05075956       0.192
   0.10151911  0.10151911  0.10151911       0.064
 
 k-points in reciprocal lattice and weights: Automatic mesh                          
   0.00000000  0.00000000  0.00000000       0.008
   0.20000000  0.00000000  0.00000000       0.048
   0.40000000  0.00000000  0.00000000       0.048
   0.20000000  0.20000000  0.00000000       0.096
   0.40000000  0.20000000  0.00000000       0.192
   0.40000000  0.40000000  0.00000000       0.096
   0.20000000  0.20000000  0.20000000       0.064
   0.40000000  0.20000000  0.20000000       0.192
   0.40000000  0.40000000  0.20000000       0.192
   0.40000000  0.40000000  0.40000000       0.064
 
 position of ions in fractional coordinates (direct lattice) 
   0.00000000  0.00000000  0.00000000
   0.50000000  0.50000000  0.50000000
   0.00000000  0.50000000  0.50000000
   0.50000000  0.00000000  0.50000000
   0.50000000  0.50000000  0.00000000
 
 position of ions in cartesian coordinates  (Angst):
   0.00000000  0.00000000  0.00000000
   1.97007236  1.97007236  1.97007236
   0.00000000  1.97007236  1.97007236
   1.97007236  0.00000000  1.97007236
   1.97007236  1.97007236  0.00000000
 


--------------------------------------------------------------------------------------------------------


 k-point  1 :   0.0000 0.0000 0.0000  plane waves:    1647
 k-point  2 :   0.2000 0.0000 0.0000  plane waves:    1671
 k-point  3 :   0.4000 0.0000 0.0000  plane waves:    1654
 k-point  4 :   0.2000 0.2000 0.0000  plane waves:    1646
 k-point  5 :   0.4000 0.2000 0.0000  plane waves:    1639
 k-point  6 :   0.4000 0.4000 0.0000  plane waves:    1648
 k-point  7 :   0.2000 0.2000 0.2000  plane waves:    1650
 k-point  8 :   0.4000 0.2000 0.2000  plane waves:    1652
 k-point  9 :   0.4000 0.4000 0.2000  plane waves:    1645
 k-point 10 :   0.4000 0.4000 0.4000  plane waves:    1646

 maximum and minimum number of plane-waves per node :       177      148

 maximum number of plane-waves:      1671
 maximum index in each direction: 
   IXMAX=    7   IYMAX=    7   IZMAX=    7
   IXMIN=   -7   IYMIN=   -7   IZMIN=   -7


 real space projection operators:
  total allocation   :       3369.61 KBytes
  max/ min on nodes  :        348.97        329.16


 parallel 3D FFT for wavefunctions:
    minimum data exchange during FFTs selected (reduces bandwidth)
 parallel 3D FFT for charge:
    minimum data exchange during FFTs selected (reduces bandwidth)


 total amount of memory used by VASP MPI-rank0    33650. kBytes
=======================================================================

   base      :      30000. kBytes
   nonlr-proj:       1115. kBytes
   fftplans  :        459. kBytes
   grid      :       1195. kBytes
   one-center:         98. kBytes
   wavefun   :        783. kBytes
 
     INWAV:  cpu time    0.0000: real time    0.0000
 Broyden mixing: mesh for mixing (old mesh)
   NGX = 15   NGY = 15   NGZ = 15
  (NGX  = 60   NGY  = 60   NGZ  = 60)
  gives a total of   3375 points

 initial charge density was supplied:
 charge density of overlapping atoms calculated
 number of electron      36.0000000 magnetization       4.0000000
 keeping initial charge density in first step


--------------------------------------------------------------------------------------------------------


 Maximum index for non-local projection operator          803
 Maximum index for augmentation-charges          965 (set IRDMAX)


--------------------------------------------------------------------------------------------------------


 First call to EWALD:  gamma=   0.450
 Maximum number of real-space cells 3x 3x 3
 Maximum number of reciprocal cells 3x 3x 3

    FEWALD:  cpu time    0.0014: real time    0.0014


--------------------------------------- Iteration      1(   1)  ---------------------------------------


    POTLOK:  cpu time    0.0150: real time    0.0157
    SETDIJ:  cpu time    0.0097: real time    0.0098
atom =   1  type =  1  l = 0
 
 onsite density matrix
 
spin component  1
 
  1.0989
 
spin component  2
 
  1.0989
 
 occupancies and eigenvectors
 
  o =  1.0989  v =  1.0000  0.0000      0.0000  0.0000
  o =  1.0989  v =  0.0000  1.0000      0.0000  0.0000
atom =   2  type =  2  l = 2
 
 onsite density matrix
 
spin component  1
 
  0.8272  0.0000  0.0000  0.0000  0.0000
  0.0000  0.8272  0.0000  0.0000  0.0000
  0.0000  0.0000  0.8272  0.0000  0.0000
  0.0000  0.0000  0.0000  0.8272  0.0000
  0.0000  0.0000  0.0000  0.0000  0.8272
 
spin component  2
 
  0.2256  0.0000  0.0000  0.0000  0.0000
  0.0000  0.2256  0.0000  0.0000  0.0000
  0.0000  0.0000  0.2256  0.0000  0.0000
  0.0000  0.0000  0.0000  0.2256  0.0000
  0.0000  0.0000  0.0000  0.0000  0.2256
 
 occupancies and eigenvectors
 
  o =  0.2256  v =  0.0000  0.0000  0.0000  0.0000  0.0000  0.0000  0.0000  1.0000  0.0000  0.0000      0.0000  0.0000  0.0000  0.0000  0.0000  0.0000  0.0000  0.0000  0.0000  0.0000
  o =  0.2256  v =  0.0000  0.0000  0.0000  0.0000  0.0000  1.0000  0.0000  0.0000  0.0000  0.0000      0.0000  0.0000  0.0000  0.0000  0.0000  0.0000  0.0000  0.0000  0.0000  0.0000
  o =  0.2256  v =  0.0000  0.0000  0.0000  0.0000  0.0000  0.0000  1.0000  0.0000  0.0000  0.0000      0.0000  0.0000  0.0000  0.0000  0.0000  0.0000  0.0000  0.0000  0.0000  0.0000
  o =  0.2256  v =  0.0000  0.0000  0.0000  0.0000  0.0000  0.0000  0.0000  0.0000  1.0000  0.0000      0.0000  0.0000  0.0000  0.0000  0.0000  0.0000  0.0000  0.0000  0.0000  0.0000
  o =  0.2256  v =  0.0000  0.0000  0.0000  0.0000  0.0000  0.0000  0.0000  0.0000  0.0000  1.0000      0.0000  0.0000  0.0000  0.0000  0.0000  0.0000  0.0000  0.0000  0.0000  0.0000
  o =  0.8272  v =  0.0000  1.0000  0.0000  0.0000  0.0000  0.0000  0.0000  0.0000  0.0000  0.0000      0.0000  0.0000  0.0000  0.0000  0.0000  0.0000  0.0000  0.0000  0.0000  0.0000
  o =  0.8272  v =  0.0000  0.0000  1.0000  0.0000  0.0000  0.0000  0.0000  0.0000  0.0000  0.0000      0.0000  0.0000  0.0000  0.0000  0.0000  0.0000  0.0000  0.0000  0.0000  0.0000
  o =  0.8272  v =  1.0000  0.0000  0.0000  0.0000  0.0000  0.0000  0.0000  0.0000  0.0000  0.0000      0.0000  0.0000  0.0000  0.0000  0.0000  0.0000  0.0000  0.0000  0.0000  0.0000
  o =  0.8272  v =  0.0000  0.0000  0.0000  1.0000  0.0000  0.0000  0.0000  0.0000  0.0000  0.0000      0.0000  0.0000  0.0000  0.0000  0.0000  0.0000  0.0000  0.0000  0.0000  0.0000
  o =  0.8272  v =  0.0000  0.0000  0.0000  0.0000  1.0000  0.0000  0.0000  0.0000  0.0000  0.0000      0.0000  0.0000  0.0000  0.0000  0.0000  0.0000  0.0000  0.0000  0.0000  0.0000
atom =   3  type =  3  l = 0
 
 onsite density matrix
 
spin component  1
 
  0.8190
 
spin component  2
 
  0.8190
 
 occupancies and eigenvectors
 
  o =  0.8190  v =  1.0000  0.0000      0.0000  0.0000
  o =  0.8190  v =  0.0000  1.0000      0.0000  0.0000
atom =   4  type =  3  l = 0
 
 onsite density matrix
 
spin component  1
 
  0.8190
 
spin component  2
 
  0.8190
 
 occupancies and eigenvectors
 
  o =  0.8190  v =  1.0000  0.0000      0.0000  0.0000
  o =  0.8190  v =  0.0000  1.0000      0.0000  0.0000
atom =   5  type =  3  l = 0
 
 onsite density matrix
 
spin component  1
 
  0.8190
 
spin component  2
 
  0.8190
 
 occupancies and eigenvectors
 
  o =  0.8190  v =  1.0000  0.0000      0.0000  0.0000
  o =  0.8190  v =  0.0000  1.0000      0.0000  0.0000
     EDDAV:  cpu time    0.1119: real time    0.1129
 BZINTS: Fermi energy: 19.416144; 36.000000 electrons
         Band energy: 322.392104;  BLOECHL correction: -0.372691
       DOS:  cpu time    0.0046: real time    0.0079
    --------------------------------------------
      LOOP:  cpu time    0.1412: real time    0.1463

 eigenvalue-minimisations  :  1000
 total energy-change (2. order) : 0.3823192E+03  (-0.1514717E+04)
 number of electron      36.0000000 magnetization       4.0000000
 augmentation part       36.0000000 magnetization       4.0000000

 Free energy of the ion-electron system (eV)
  ---------------------------------------------------
  alpha Z        PSCENC =       158.74615393
  Ewald energy   TEWEN  =     -2362.62040756
  -Hartree energ DENC   =      -437.13270834
  -exchange      EXHF   =         0.00000000
  -V(xc)+E(xc)   XCENC  =       103.85603888
  PAW double counting   =      2088.38994440    -2071.11293963
  entropy T*S    EENTRO =         0.00000000
  eigenvalues    EBANDS =       322.39210359
  atomic energy  EATOM  =      2579.80103561
  Solvation  Ediel_sol  =         0.00000000
  ---------------------------------------------------
  free energy    TOTEN  =       382.31922089 eV

  energy without entropy =      382.31922089  energy(sigma->0) =      382.31922089


--------------------------------------------------------------------------------------------------------




--------------------------------------- Iteration      1(   2)  ---------------------------------------


     EDDAV:  cpu time    0.1111: real time    0.1114
 BZINTS: Fermi energy: 11.607344; 36.000000 electrons
         Band energy:   5.250784;  BLOECHL correction: -0.062204
       DOS:  cpu time    0.0039: real time    0.0039
    --------------------------------------------
      LOOP:  cpu time    0.1150: real time    0.1153

 eigenvalue-minimisations  :  1024
 total energy-change (2. order) :-0.3171413E+03  (-0.2940069E+03)
 number of electron      36.0000000 magnetization       4.0000000
 augmentation part       36.0000000 magnetization       4.0000000

 Free energy of the ion-electron system (eV)
  ---------------------------------------------------
  alpha Z        PSCENC =       158.74615393
  Ewald energy   TEWEN  =     -2362.62040756
  -Hartree energ DENC   =      -437.13270834
  -exchange      EXHF   =         0.00000000
  -V(xc)+E(xc)   XCENC  =       103.85603888
  PAW double counting   =      2088.38994440    -2071.11293963
  entropy T*S    EENTRO =         0.00000000
  eigenvalues    EBANDS =         5.25078435
  atomic energy  EATOM  =      2579.80103561
  Solvation  Ediel_sol  =         0.00000000
  ---------------------------------------------------
  free energy    TOTEN  =        65.17790165 eV

  energy without entropy =       65.17790165  energy(sigma->0) =       65.17790165


--------------------------------------------------------------------------------------------------------




--------------------------------------- Iteration      1(   3)  ---------------------------------------


     EDDAV:  cpu time    0.1603: real time    0.1608
 BZINTS: Fermi energy: 10.738797; 36.000000 electrons
         Band energy: -91.675761;  BLOECHL correction: -0.035152
       DOS:  cpu time    0.0035: real time    0.0035
    --------------------------------------------
      LOOP:  cpu time    0.1638: real time    0.1644

 eigenvalue-minimisations  :  1592
 total energy-change (2. order) :-0.9692655E+02  (-0.9284560E+02)
 number of electron      36.0000000 magnetization       4.0000000
 augmentation part       36.0000000 magnetization       4.0000000

 Free energy of the ion-electron system (eV)
  ---------------------------------------------------
  alpha Z        PSCENC =       158.74615393
  Ewald energy   TEWEN  =     -2362.62040756
  -Hartree energ DENC   =      -437.13270834
  -exchange      EXHF   =         0.00000000
  -V(xc)+E(xc)   XCENC  =       103.85603888
  PAW double counting   =      2088.38994440    -2071.11293963
  entropy T*S    EENTRO =         0.00000000
  eigenvalues    EBANDS =       -91.67576112
  atomic energy  EATOM  =      2579.80103561
  Solvation  Ediel_sol  =         0.00000000
  ---------------------------------------------------
  free energy    TOTEN  =       -31.74864382 eV

  energy without entropy =      -31.74864382  energy(sigma->0) =      -31.74864382


--------------------------------------------------------------------------------------------------------




--------------------------------------- Iteration      1(   4)  ---------------------------------------


     EDDAV:  cpu time    0.1715: real time    0.1720
 BZINTS: Fermi energy: 10.223850; 36.000000 electrons
         Band energy:-105.807898;  BLOECHL correction: -0.067186
       DOS:  cpu time    0.0034: real time    0.0035
    --------------------------------------------
      LOOP:  cpu time    0.1749: real time    0.1755

 eigenvalue-minimisations  :  1728
 total energy-change (2. order) :-0.1413214E+02  (-0.1347370E+02)
 number of electron      36.0000000 magnetization       4.0000000
 augmentation part       36.0000000 magnetization       4.0000000

 Free energy of the ion-electron system (eV)
  ---------------------------------------------------
  alpha Z        PSCENC =       158.74615393
  Ewald energy   TEWEN  =     -2362.62040756
  -Hartree energ DENC   =      -437.13270834
  -exchange      EXHF   =         0.00000000
  -V(xc)+E(xc)   XCENC  =       103.85603888
  PAW double counting   =      2088.38994440    -2071.11293963
  entropy T*S    EENTRO =         0.00000000
  eigenvalues    EBANDS =      -105.80789806
  atomic energy  EATOM  =      2579.80103561
  Solvation  Ediel_sol  =         0.00000000
  ---------------------------------------------------
  free energy    TOTEN  =       -45.88078076 eV

  energy without entropy =      -45.88078076  energy(sigma->0) =      -45.88078076


--------------------------------------------------------------------------------------------------------




--------------------------------------- Iteration      1(   5)  ---------------------------------------


     EDDAV:  cpu time    0.1413: real time    0.1418
 BZINTS: Fermi energy: 10.103212; 36.000000 electrons
         Band energy:-106.481603;  BLOECHL correction: -0.063003
       DOS:  cpu time    0.0037: real time    0.0037
    CHARGE:  cpu time    0.0151: real time    0.0154
    MIXING:  cpu time    0.0010: real time    0.0013
    --------------------------------------------
      LOOP:  cpu time    0.1612: real time    0.1621

 eigenvalue-minimisations  :  1416
 total energy-change (2. order) :-0.6737052E+00  (-0.6685696E+00)
 number of electron      35.9999992 magnetization       3.7884304
 augmentation part        3.2100622 magnetization       2.2337281

 Broyden mixing:
  rms(total) = 0.25080E+01    rms(broyden)= 0.25078E+01
  rms(prec ) = 0.48546E+01
  weight for this iteration     100.00

 Free energy of the ion-electron system (eV)
  ---------------------------------------------------
  alpha Z        PSCENC =       158.74615393
  Ewald energy   TEWEN  =     -2362.62040756
  -Hartree energ DENC   =      -437.13270834
  -exchange      EXHF   =         0.00000000
  -V(xc)+E(xc)   XCENC  =       103.85603888
  PAW double counting   =      2088.38994440    -2071.11293963
  entropy T*S    EENTRO =         0.00000000
  eigenvalues    EBANDS =      -106.48160329
  atomic energy  EATOM  =      2579.80103561
  Solvation  Ediel_sol  =         0.00000000
  ---------------------------------------------------
  free energy    TOTEN  =       -46.55448599 eV

  energy without entropy =      -46.55448599  energy(sigma->0) =      -46.55448599


--------------------------------------------------------------------------------------------------------




--------------------------------------- Iteration      1(   6)  ---------------------------------------


    POTLOK:  cpu time    0.0121: real time    0.0122
    SETDIJ:  cpu time    0.0068: real time    0.0069
atom =   1  type =  1  l = 0
 
 onsite density matrix
 
spin component  1
 
  1.0585
 
spin component  2
 
  1.0584
 
 occupancies and eigenvectors
 
  o =  1.0584  v =  0.0000  1.0000      0.0000  0.0000
  o =  1.0585  v =  1.0000  0.0000      0.0000  0.0000
atom =   2  type =  2  l = 2
 
 onsite density matrix
 
spin component  1
 
  1.0101  0.0000 -0.0000 -0.0000  0.0000
  0.0000  1.0101  0.0000  0.0000  0.0000
 -0.0000  0.0000  0.6119 -0.0000  0.0000
 -0.0000  0.0000 -0.0000  1.0101 -0.0000
  0.0000  0.0000  0.0000 -0.0000  0.6119
 
spin component  2
 
 -0.0125 -0.0000  0.0000 -0.0000 -0.0000
 -0.0000 -0.0125 -0.0000 -0.0000  0.0000
  0.0000 -0.0000  0.2759 -0.0000  0.0000
 -0.0000 -0.0000 -0.0000 -0.0125  0.0000
 -0.0000  0.0000  0.0000  0.0000  0.2759
 
 occupancies and eigenvectors
 
  o = -0.0125  v =  0.0000  0.0000  0.0000  0.0000  0.0000  1.0000  0.0000  0.0000  0.0000  0.0000      0.0000  0.0000  0.0000  0.0000  0.0000  0.0000  0.0000  0.0000  0.0000  0.0000
  o = -0.0125  v =  0.0000  0.0000  0.0000  0.0000  0.0000  0.0000  0.4952  0.0000 -0.8688  0.0000      0.0000  0.0000  0.0000  0.0000  0.0000  0.0000  0.0000  0.0000  0.0000  0.0000
  o = -0.0125  v =  0.0000  0.0000  0.0000  0.0000  0.0000  0.0000  0.8688 -0.0000  0.4952 -0.0000      0.0000  0.0000  0.0000  0.0000  0.0000  0.0000  0.0000  0.0000  0.0000  0.0000
  o =  0.2759  v =  0.0000  0.0000  0.0000  0.0000  0.0000  0.0000 -0.0000 -0.9959  0.0000  0.0902      0.0000  0.0000  0.0000  0.0000  0.0000  0.0000  0.0000  0.0000  0.0000  0.0000
  o =  0.2759  v =  0.0000  0.0000  0.0000  0.0000  0.0000  0.0000 -0.0000  0.0902 -0.0000  0.9959      0.0000  0.0000  0.0000  0.0000  0.0000  0.0000  0.0000  0.0000  0.0000  0.0000
  o =  0.6119  v =  0.0000 -0.0000  0.0505  0.0000 -0.9987  0.0000  0.0000  0.0000  0.0000  0.0000      0.0000  0.0000  0.0000  0.0000  0.0000  0.0000  0.0000  0.0000  0.0000  0.0000
  o =  0.6119  v =  0.0000 -0.0000 -0.9987  0.0000 -0.0505  0.0000  0.0000  0.0000  0.0000  0.0000      0.0000  0.0000  0.0000  0.0000  0.0000  0.0000  0.0000  0.0000  0.0000  0.0000
  o =  1.0101  v =  0.0000 -0.9874  0.0000  0.1580 -0.0000  0.0000  0.0000  0.0000  0.0000  0.0000      0.0000  0.0000  0.0000  0.0000  0.0000  0.0000  0.0000  0.0000  0.0000  0.0000
  o =  1.0101  v =  0.0000 -0.1580 -0.0000 -0.9874 -0.0000  0.0000  0.0000  0.0000  0.0000  0.0000      0.0000  0.0000  0.0000  0.0000  0.0000  0.0000  0.0000  0.0000  0.0000  0.0000
  o =  1.0101  v =  1.0000  0.0000  0.0000  0.0000  0.0000  0.0000  0.0000  0.0000  0.0000  0.0000      0.0000  0.0000  0.0000  0.0000  0.0000  0.0000  0.0000  0.0000  0.0000  0.0000
atom =   3  type =  3  l = 0
 
 onsite density matrix
 
spin component  1
 
  0.8177
 
spin component  2
 
  0.8133
 
 occupancies and eigenvectors
 
  o =  0.8133  v =  0.0000  1.0000      0.0000  0.0000
  o =  0.8177  v =  1.0000  0.0000      0.0000  0.0000
atom =   4  type =  3  l = 0
 
 onsite density matrix
 
spin component  1
 
  0.8177
 
spin component  2
 
  0.8133
 
 occupancies and eigenvectors
 
  o =  0.8133  v =  0.0000  1.0000      0.0000  0.0000
  o =  0.8177  v =  1.0000  0.0000      0.0000  0.0000
atom =   5  type =  3  l = 0
 
 onsite density matrix
 
spin component  1
 
  0.8177
 
spin component  2
 
  0.8133
 
 occupancies and eigenvectors
 
  o =  0.8133  v =  0.0000  1.0000      0.0000  0.0000
  o =  0.8177  v =  1.0000  0.0000      0.0000  0.0000
    EDDIAG:  cpu time    0.0246: real time    0.0248
  RMM-DIIS:  cpu time    0.0852: real time    0.0859
    ORTHCH:  cpu time    0.0018: real time    0.0018
 BZINTS: Fermi energy:  7.724994; 36.000000 electrons
         Band energy: -75.977432;  BLOECHL correction: -0.100989
       DOS:  cpu time    0.0033: real time    0.0033
    CHARGE:  cpu time    0.0162: real time    0.0162
    MIXING:  cpu time    0.0010: real time    0.0011
    --------------------------------------------
      LOOP:  cpu time    0.1510: real time    0.1523

 eigenvalue-minimisations  :  1503
 total energy-change (2. order) : 0.6318501E+01  (-0.8766016E+01)
 number of electron      35.9999991 magnetization       3.9319704
 augmentation part        3.7752128 magnetization       2.7855924

 Broyden mixing:
  rms(total) = 0.39563E+01    rms(broyden)= 0.39562E+01
  rms(prec ) = 0.41037E+01
  weight for this iteration     100.00

 eigenvalues of (default mixing * dielectric matrix)
  average eigenvalue GAMMA=   0.0213
  0.0213

 Free energy of the ion-electron system (eV)
  ---------------------------------------------------
  alpha Z        PSCENC =       158.74615393
  Ewald energy   TEWEN  =     -2362.62040756
  -Hartree energ DENC   =      -466.30794375
  -exchange      EXHF   =         0.00000000
  -V(xc)+E(xc)   XCENC  =       107.80778561
  PAW double counting   =      2334.41597660    -2316.10115341
  entropy T*S    EENTRO =         0.00000000
  eigenvalues    EBANDS =       -75.97743223
  atomic energy  EATOM  =      2579.80103561
  Solvation  Ediel_sol  =         0.00000000
  ---------------------------------------------------
  free energy    TOTEN  =       -40.23598519 eV

  energy without entropy =      -40.23598519  energy(sigma->0) =      -40.23598519


--------------------------------------------------------------------------------------------------------




--------------------------------------- Iteration      1(   7)  ---------------------------------------


    POTLOK:  cpu time    0.0122: real time    0.0124
    SETDIJ:  cpu time    0.0065: real time    0.0066
atom =   1  type =  1  l = 0
 
 onsite density matrix
 
spin component  1
 
  1.0444
 
spin component  2
 
  1.0447
 
 occupancies and eigenvectors
 
  o =  1.0444  v =  1.0000  0.0000      0.0000  0.0000
  o =  1.0447  v =  0.0000  1.0000      0.0000  0.0000
atom =   2  type =  2  l = 2
 
 onsite density matrix
 
spin component  1
 
  0.9452  0.0000 -0.0000 -0.0000 -0.0000
  0.0000  0.9452 -0.0000 -0.0000 -0.0000
 -0.0000 -0.0000  0.7020  0.0000 -0.0000
 -0.0000 -0.0000  0.0000  0.9452  0.0000
 -0.0000 -0.0000 -0.0000  0.0000  0.7020
 
spin component  2
 
  0.0565 -0.0000  0.0000  0.0000 -0.0000
 -0.0000  0.0565  0.0000  0.0000  0.0000
  0.0000  0.0000  0.2140 -0.0000  0.0000
  0.0000  0.0000 -0.0000  0.0565 -0.0000
 -0.0000  0.0000  0.0000 -0.0000  0.2140
 
 occupancies and eigenvectors
 
  o =  0.0565  v =  0.0000  0.0000  0.0000  0.0000  0.0000  1.0000  0.0000  0.0000  0.0000  0.0000      0.0000  0.0000  0.0000  0.0000  0.0000  0.0000  0.0000  0.0000  0.0000  0.0000
  o =  0.0565  v =  0.0000  0.0000  0.0000  0.0000  0.0000  0.0000 -0.0042  0.0000  1.0000 -0.0000      0.0000  0.0000  0.0000  0.0000  0.0000  0.0000  0.0000  0.0000  0.0000  0.0000
  o =  0.0565  v =  0.0000  0.0000  0.0000  0.0000  0.0000  0.0000 -1.0000  0.0000 -0.0042  0.0000      0.0000  0.0000  0.0000  0.0000  0.0000  0.0000  0.0000  0.0000  0.0000  0.0000
  o =  0.2140  v =  0.0000  0.0000  0.0000  0.0000  0.0000  0.0000  0.0000  0.9974 -0.0000 -0.0727      0.0000  0.0000  0.0000  0.0000  0.0000  0.0000  0.0000  0.0000  0.0000  0.0000
  o =  0.2140  v =  0.0000  0.0000  0.0000  0.0000  0.0000  0.0000  0.0000  0.0727 -0.0000  0.9974      0.0000  0.0000  0.0000  0.0000  0.0000  0.0000  0.0000  0.0000  0.0000  0.0000
  o =  0.7020  v =  0.0000  0.0000 -0.0567  0.0000 -0.9984  0.0000  0.0000  0.0000  0.0000  0.0000      0.0000  0.0000  0.0000  0.0000  0.0000  0.0000  0.0000  0.0000  0.0000  0.0000
  o =  0.7020  v =  0.0000 -0.0000 -0.9984  0.0000  0.0567  0.0000  0.0000  0.0000  0.0000  0.0000      0.0000  0.0000  0.0000  0.0000  0.0000  0.0000  0.0000  0.0000  0.0000  0.0000
  o =  0.9452  v =  0.0000 -0.6454  0.0000  0.7639  0.0000  0.0000  0.0000  0.0000  0.0000  0.0000      0.0000  0.0000  0.0000  0.0000  0.0000  0.0000  0.0000  0.0000  0.0000  0.0000
  o =  0.9452  v =  0.0000  0.7639 -0.0000  0.6454  0.0000  0.0000  0.0000  0.0000  0.0000  0.0000      0.0000  0.0000  0.0000  0.0000  0.0000  0.0000  0.0000  0.0000  0.0000  0.0000
  o =  0.9452  v =  1.0000  0.0000  0.0000  0.0000  0.0000  0.0000  0.0000  0.0000  0.0000  0.0000      0.0000  0.0000  0.0000  0.0000  0.0000  0.0000  0.0000  0.0000  0.0000  0.0000
atom =   3  type =  3  l = 0
 
 onsite density matrix
 
spin component  1
 
  0.8117
 
spin component  2
 
  0.8059
 
 occupancies and eigenvectors
 
  o =  0.8059  v =  0.0000  1.0000      0.0000  0.0000
  o =  0.8117  v =  1.0000  0.0000      0.0000  0.0000
atom =   4  type =  3  l = 0
 
 onsite density matrix
 
spin component  1
 
  0.8117
 
spin component  2
 
  0.8059
 
 occupancies and eigenvectors
 
  o =  0.8059  v =  0.0000  1.0000      0.0000  0.0000
  o =  0.8117  v =  1.0000  0.0000      0.0000  0.0000
atom =   5  type =  3  l = 0
 
 onsite density matrix
 
spin component  1
 
  0.8117
 
spin component  2
 
  0.8059
 
 occupancies and eigenvectors
 
  o =  0.8059  v =  0.0000  1.0000      0.0000  0.0000
  o =  0.8117  v =  1.0000  0.0000      0.0000  0.0000
    EDDIAG:  cpu time    0.0242: real time    0.0246
  RMM-DIIS:  cpu time    0.0763: real time    0.0776
    ORTHCH:  cpu time    0.0019: real time    0.0019
 BZINTS: Fermi energy:  8.015272; 36.000000 electrons
         Band energy: -72.958995;  BLOECHL correction: -0.080789
       DOS:  cpu time    0.0032: real time    0.0032
    CHARGE:  cpu time    0.0134: real time    0.0134
    MIXING:  cpu time    0.0007: real time    0.0007
    --------------------------------------------
      LOOP:  cpu time    0.1384: real time    0.1403

 eigenvalue-minimisations  :  1374
 total energy-change (2. order) : 0.6428840E+00  (-0.8362877E+00)
 number of electron      35.9999992 magnetization       3.9796852
 augmentation part        3.5651358 magnetization       2.7658658

 Broyden mixing:
  rms(total) = 0.17563E+01    rms(broyden)= 0.17563E+01
  rms(prec ) = 0.18981E+01
  weight for this iteration     100.00

 eigenvalues of (default mixing * dielectric matrix)
  average eigenvalue GAMMA=   0.5857
  0.5857  0.5857

 Free energy of the ion-electron system (eV)
  ---------------------------------------------------
  alpha Z        PSCENC =       158.74615393
  Ewald energy   TEWEN  =     -2362.62040756
  -Hartree energ DENC   =      -466.45770553
  -exchange      EXHF   =         0.00000000
  -V(xc)+E(xc)   XCENC  =       108.18804755
  PAW double counting   =      2448.76413833    -2433.05536888
  entropy T*S    EENTRO =         0.00000000
  eigenvalues    EBANDS =       -72.95899463
  atomic energy  EATOM  =      2579.80103561
  Solvation  Ediel_sol  =         0.00000000
  ---------------------------------------------------
  free energy    TOTEN  =       -39.59310117 eV

  energy without entropy =      -39.59310117  energy(sigma->0) =      -39.59310117


--------------------------------------------------------------------------------------------------------




--------------------------------------- Iteration      1(   8)  ---------------------------------------


    POTLOK:  cpu time    0.0124: real time    0.0125
    SETDIJ:  cpu time    0.0065: real time    0.0065
atom =   1  type =  1  l = 0
 
 onsite density matrix
 
spin component  1
 
  1.0316
 
spin component  2
 
  1.0319
 
 occupancies and eigenvectors
 
  o =  1.0316  v =  1.0000  0.0000      0.0000  0.0000
  o =  1.0319  v =  0.0000  1.0000      0.0000  0.0000
atom =   2  type =  2  l = 2
 
 onsite density matrix
 
spin component  1
 
  0.9469 -0.0000 -0.0000  0.0000 -0.0000
 -0.0000  0.9469  0.0000  0.0000  0.0000
 -0.0000  0.0000  0.7221  0.0000  0.0000
  0.0000  0.0000  0.0000  0.9469 -0.0000
 -0.0000  0.0000  0.0000 -0.0000  0.7221
 
spin component  2
 
  0.0588  0.0000 -0.0000 -0.0000 -0.0000
  0.0000  0.0588 -0.0000 -0.0000 -0.0000
 -0.0000 -0.0000  0.2183 -0.0000  0.0000
 -0.0000 -0.0000 -0.0000  0.0588  0.0000
 -0.0000 -0.0000  0.0000  0.0000  0.2183
 
 occupancies and eigenvectors
 
  o =  0.0588  v =  0.0000  0.0000  0.0000  0.0000  0.0000  0.0000 -0.0013  0.0000  1.0000  0.0000      0.0000  0.0000  0.0000  0.0000  0.0000  0.0000  0.0000  0.0000  0.0000  0.0000
  o =  0.0588  v =  0.0000  0.0000  0.0000  0.0000  0.0000  0.0000  1.0000 -0.0000  0.0013 -0.0000      0.0000  0.0000  0.0000  0.0000  0.0000  0.0000  0.0000  0.0000  0.0000  0.0000
  o =  0.0588  v =  0.0000  0.0000  0.0000  0.0000  0.0000  1.0000  0.0000  0.0000  0.0000  0.0000      0.0000  0.0000  0.0000  0.0000  0.0000  0.0000  0.0000  0.0000  0.0000  0.0000
  o =  0.2183  v =  0.0000  0.0000  0.0000  0.0000  0.0000  0.0000 -0.0000  0.0597  0.0000 -0.9982      0.0000  0.0000  0.0000  0.0000  0.0000  0.0000  0.0000  0.0000  0.0000  0.0000
  o =  0.2183  v =  0.0000  0.0000  0.0000  0.0000  0.0000  0.0000  0.0000  0.9982 -0.0000  0.0597      0.0000  0.0000  0.0000  0.0000  0.0000  0.0000  0.0000  0.0000  0.0000  0.0000
  o =  0.7221  v =  0.0000 -0.0000  0.0739 -0.0000 -0.9973  0.0000  0.0000  0.0000  0.0000  0.0000      0.0000  0.0000  0.0000  0.0000  0.0000  0.0000  0.0000  0.0000  0.0000  0.0000
  o =  0.7221  v =  0.0000 -0.0000  0.9973 -0.0000  0.0739  0.0000  0.0000  0.0000  0.0000  0.0000      0.0000  0.0000  0.0000  0.0000  0.0000  0.0000  0.0000  0.0000  0.0000  0.0000
  o =  0.9469  v =  0.0000 -0.9848  0.0000  0.1739  0.0000  0.0000  0.0000  0.0000  0.0000  0.0000      0.0000  0.0000  0.0000  0.0000  0.0000  0.0000  0.0000  0.0000  0.0000  0.0000
  o =  0.9469  v =  1.0000  0.0000  0.0000  0.0000  0.0000  0.0000  0.0000  0.0000  0.0000  0.0000      0.0000  0.0000  0.0000  0.0000  0.0000  0.0000  0.0000  0.0000  0.0000  0.0000
  o =  0.9469  v =  0.0000  0.1739  0.0000  0.9848 -0.0000  0.0000  0.0000  0.0000  0.0000  0.0000      0.0000  0.0000  0.0000  0.0000  0.0000  0.0000  0.0000  0.0000  0.0000  0.0000
atom =   3  type =  3  l = 0
 
 onsite density matrix
 
spin component  1
 
  0.8080
 
spin component  2
 
  0.7980
 
 occupancies and eigenvectors
 
  o =  0.7980  v =  0.0000  1.0000      0.0000  0.0000
  o =  0.8080  v =  1.0000  0.0000      0.0000  0.0000
atom =   4  type =  3  l = 0
 
 onsite density matrix
 
spin component  1
 
  0.8080
 
spin component  2
 
  0.7980
 
 occupancies and eigenvectors
 
  o =  0.7980  v =  0.0000  1.0000      0.0000  0.0000
  o =  0.8080  v =  1.0000  0.0000      0.0000  0.0000
atom =   5  type =  3  l = 0
 
 onsite density matrix
 
spin component  1
 
  0.8080
 
spin component  2
 
  0.7980
 
 occupancies and eigenvectors
 
  o =  0.7980  v =  0.0000  1.0000      0.0000  0.0000
  o =  0.8080  v =  1.0000  0.0000      0.0000  0.0000
    EDDIAG:  cpu time    0.0242: real time    0.0242
  RMM-DIIS:  cpu time    0.0900: real time    0.0903
    ORTHCH:  cpu time    0.0025: real time    0.0029
 BZINTS: Fermi energy:  8.301955; 36.000000 electrons
         Band energy: -74.496432;  BLOECHL correction: -0.063478
       DOS:  cpu time    0.0031: real time    0.0031
    CHARGE:  cpu time    0.0136: real time    0.0136
    MIXING:  cpu time    0.0008: real time    0.0008
    --------------------------------------------
      LOOP:  cpu time    0.1530: real time    0.1539

 eigenvalue-minimisations  :  1437
 total energy-change (2. order) : 0.1068481E+00  (-0.2812246E+00)
 number of electron      35.9999992 magnetization       4.0012011
 augmentation part        3.4384900 magnetization       2.7519639

 Broyden mixing:
  rms(total) = 0.69351E+00    rms(broyden)= 0.69350E+00
  rms(prec ) = 0.76609E+00
  weight for this iteration     100.00

 eigenvalues of (default mixing * dielectric matrix)
  average eigenvalue GAMMA=   0.9260
  1.3679  0.8099  0.6003

 Free energy of the ion-electron system (eV)
  ---------------------------------------------------
  alpha Z        PSCENC =       158.74615393
  Ewald energy   TEWEN  =     -2362.62040756
  -Hartree energ DENC   =      -463.47744003
  -exchange      EXHF   =         0.00000000
  -V(xc)+E(xc)   XCENC  =       107.93213826
  PAW double counting   =      2575.13498251    -2560.50628341
  entropy T*S    EENTRO =         0.00000000
  eigenvalues    EBANDS =       -74.49643240
  atomic energy  EATOM  =      2579.80103561
  Solvation  Ediel_sol  =         0.00000000
  ---------------------------------------------------
  free energy    TOTEN  =       -39.48625308 eV

  energy without entropy =      -39.48625308  energy(sigma->0) =      -39.48625308


--------------------------------------------------------------------------------------------------------




--------------------------------------- Iteration      1(   9)  ---------------------------------------


    POTLOK:  cpu time    0.0127: real time    0.0147
    SETDIJ:  cpu time    0.0068: real time    0.0068
atom =   1  type =  1  l = 0
 
 onsite density matrix
 
spin component  1
 
  1.0110
 
spin component  2
 
  1.0152
 
 occupancies and eigenvectors
 
  o =  1.0110  v =  1.0000  0.0000      0.0000  0.0000
  o =  1.0152  v =  0.0000  1.0000      0.0000  0.0000
atom =   2  type =  2  l = 2
 
 onsite density matrix
 
spin component  1
 
  0.9596  0.0000  0.0000  0.0000  0.0000
  0.0000  0.9596  0.0000 -0.0000 -0.0000
  0.0000  0.0000  0.7511 -0.0000  0.0000
  0.0000 -0.0000 -0.0000  0.9596  0.0000
  0.0000 -0.0000  0.0000  0.0000  0.7511
 
spin component  2
 
  0.0498 -0.0000 -0.0000 -0.0000 -0.0000
 -0.0000  0.0498 -0.0000  0.0000  0.0000
 -0.0000 -0.0000  0.2052  0.0000  0.0000
 -0.0000  0.0000  0.0000  0.0498 -0.0000
 -0.0000  0.0000  0.0000 -0.0000  0.2052
 
 occupancies and eigenvectors
 
  o =  0.0498  v =  0.0000  0.0000  0.0000  0.0000  0.0000  0.0000 -1.0000 -0.0000 -0.0001  0.0000      0.0000  0.0000  0.0000  0.0000  0.0000  0.0000  0.0000  0.0000  0.0000  0.0000
  o =  0.0498  v =  0.0000  0.0000  0.0000  0.0000  0.0000  0.0000 -0.0001 -0.0000  1.0000  0.0000      0.0000  0.0000  0.0000  0.0000  0.0000  0.0000  0.0000  0.0000  0.0000  0.0000
  o =  0.0498  v =  0.0000  0.0000  0.0000  0.0000  0.0000  1.0000  0.0000  0.0000  0.0000  0.0000      0.0000  0.0000  0.0000  0.0000  0.0000  0.0000  0.0000  0.0000  0.0000  0.0000
  o =  0.2052  v =  0.0000  0.0000  0.0000  0.0000  0.0000  0.0000  0.0000 -0.9998 -0.0000 -0.0201      0.0000  0.0000  0.0000  0.0000  0.0000  0.0000  0.0000  0.0000  0.0000  0.0000
  o =  0.2052  v =  0.0000  0.0000  0.0000  0.0000  0.0000  0.0000 -0.0000  0.0201  0.0000 -0.9998      0.0000  0.0000  0.0000  0.0000  0.0000  0.0000  0.0000  0.0000  0.0000  0.0000
  o =  0.7511  v =  0.0000 -0.0000  0.0116  0.0000  0.9999  0.0000  0.0000  0.0000  0.0000  0.0000      0.0000  0.0000  0.0000  0.0000  0.0000  0.0000  0.0000  0.0000  0.0000  0.0000
  o =  0.7511  v =  0.0000  0.0000 -0.9999  0.0000  0.0116  0.0000  0.0000  0.0000  0.0000  0.0000      0.0000  0.0000  0.0000  0.0000  0.0000  0.0000  0.0000  0.0000  0.0000  0.0000
  o =  0.9596  v =  1.0000  0.0000  0.0000  0.0000  0.0000  0.0000  0.0000  0.0000  0.0000  0.0000      0.0000  0.0000  0.0000  0.0000  0.0000  0.0000  0.0000  0.0000  0.0000  0.0000
  o =  0.9596  v =  0.0000 -0.0108 -0.0000 -0.9999  0.0000  0.0000  0.0000  0.0000  0.0000  0.0000      0.0000  0.0000  0.0000  0.0000  0.0000  0.0000  0.0000  0.0000  0.0000  0.0000
  o =  0.9596  v =  0.0000  0.9999  0.0000 -0.0108  0.0000  0.0000  0.0000  0.0000  0.0000  0.0000      0.0000  0.0000  0.0000  0.0000  0.0000  0.0000  0.0000  0.0000  0.0000  0.0000
atom =   3  type =  3  l = 0
 
 onsite density matrix
 
spin component  1
 
  0.7998
 
spin component  2
 
  0.7917
 
 occupancies and eigenvectors
 
  o =  0.7917  v =  0.0000  1.0000      0.0000  0.0000
  o =  0.7998  v =  1.0000  0.0000      0.0000  0.0000
atom =   4  type =  3  l = 0
 
 onsite density matrix
 
spin component  1
 
  0.7998
 
spin component  2
 
  0.7917
 
 occupancies and eigenvectors
 
  o =  0.7917  v =  0.0000  1.0000      0.0000  0.0000
  o =  0.7998  v =  1.0000  0.0000      0.0000  0.0000
atom =   5  type =  3  l = 0
 
 onsite density matrix
 
spin component  1
 
  0.7998
 
spin component  2
 
  0.7917
 
 occupancies and eigenvectors
 
  o =  0.7917  v =  0.0000  1.0000      0.0000  0.0000
  o =  0.7998  v =  1.0000  0.0000      0.0000  0.0000
    EDDIAG:  cpu time    0.0243: real time    0.0243
  RMM-DIIS:  cpu time    0.0866: real time    0.0868
    ORTHCH:  cpu time    0.0018: real time    0.0018
 BZINTS: Fermi energy:  8.297329; 36.000000 electrons
         Band energy: -78.039239;  BLOECHL correction: -0.062308
       DOS:  cpu time    0.0034: real time    0.0034
    CHARGE:  cpu time    0.0133: real time    0.0133
    MIXING:  cpu time    0.0008: real time    0.0008
    --------------------------------------------
      LOOP:  cpu time    0.1496: real time    0.1520

 eigenvalue-minimisations  :  1542
 total energy-change (2. order) :-0.8886757E-01  (-0.1662852E+00)
 number of electron      35.9999992 magnetization       4.0100461
 augmentation part        3.3964516 magnetization       2.7501821

 Broyden mixing:
  rms(total) = 0.38484E+00    rms(broyden)= 0.38481E+00
  rms(prec ) = 0.43587E+00
  weight for this iteration     100.00

 eigenvalues of (default mixing * dielectric matrix)
  average eigenvalue GAMMA=   0.9874
  1.8698  0.7506  0.7506  0.5785

 Free energy of the ion-electron system (eV)
  ---------------------------------------------------
  alpha Z        PSCENC =       158.74615393
  Ewald energy   TEWEN  =     -2362.62040756
  -Hartree energ DENC   =      -459.07429945
  -exchange      EXHF   =         0.00000000
  -V(xc)+E(xc)   XCENC  =       107.70326831
  PAW double counting   =      2712.50409781    -2698.59573067
  entropy T*S    EENTRO =         0.00000000
  eigenvalues    EBANDS =       -78.03923863
  atomic energy  EATOM  =      2579.80103561
  Solvation  Ediel_sol  =         0.00000000
  ---------------------------------------------------
  free energy    TOTEN  =       -39.57512065 eV

  energy without entropy =      -39.57512065  energy(sigma->0) =      -39.57512065


--------------------------------------------------------------------------------------------------------




--------------------------------------- Iteration      1(  10)  ---------------------------------------


    POTLOK:  cpu time    0.0121: real time    0.0123
    SETDIJ:  cpu time    0.0066: real time    0.0066
atom =   1  type =  1  l = 0
 
 onsite density matrix
 
spin component  1
 
  1.0030
 
spin component  2
 
  1.0037
 
 occupancies and eigenvectors
 
  o =  1.0030  v =  1.0000  0.0000      0.0000  0.0000
  o =  1.0037  v =  0.0000  1.0000      0.0000  0.0000
atom =   2  type =  2  l = 2
 
 onsite density matrix
 
spin component  1
 
  0.9494 -0.0000 -0.0000  0.0000 -0.0000
 -0.0000  0.9494 -0.0000  0.0000  0.0000
 -0.0000 -0.0000  0.7643  0.0000 -0.0000
  0.0000  0.0000  0.0000  0.9494 -0.0000
 -0.0000  0.0000 -0.0000 -0.0000  0.7643
 
spin component  2
 
  0.0591  0.0000  0.0000 -0.0000  0.0000
  0.0000  0.0591  0.0000 -0.0000 -0.0000
  0.0000  0.0000  0.1902 -0.0000  0.0000
 -0.0000 -0.0000 -0.0000  0.0591  0.0000
  0.0000 -0.0000  0.0000  0.0000  0.1902
 
 occupancies and eigenvectors
 
  o =  0.0591  v =  0.0000  0.0000  0.0000  0.0000  0.0000  0.0000 -1.0000  0.0000  0.0020 -0.0000      0.0000  0.0000  0.0000  0.0000  0.0000  0.0000  0.0000  0.0000  0.0000  0.0000
  o =  0.0591  v =  0.0000  0.0000  0.0000  0.0000  0.0000  0.0000  0.0020  0.0000  1.0000 -0.0000      0.0000  0.0000  0.0000  0.0000  0.0000  0.0000  0.0000  0.0000  0.0000  0.0000
  o =  0.0591  v =  0.0000  0.0000  0.0000  0.0000  0.0000  1.0000  0.0000  0.0000  0.0000  0.0000      0.0000  0.0000  0.0000  0.0000  0.0000  0.0000  0.0000  0.0000  0.0000  0.0000
  o =  0.1902  v =  0.0000  0.0000  0.0000  0.0000  0.0000  0.0000  0.0000  0.0097  0.0000 -1.0000      0.0000  0.0000  0.0000  0.0000  0.0000  0.0000  0.0000  0.0000  0.0000  0.0000
  o =  0.1902  v =  0.0000  0.0000  0.0000  0.0000  0.0000  0.0000  0.0000  1.0000 -0.0000  0.0097      0.0000  0.0000  0.0000  0.0000  0.0000  0.0000  0.0000  0.0000  0.0000  0.0000
  o =  0.7643  v =  0.0000  0.0000  1.0000  0.0000  0.0050  0.0000  0.0000  0.0000  0.0000  0.0000      0.0000  0.0000  0.0000  0.0000  0.0000  0.0000  0.0000  0.0000  0.0000  0.0000
  o =  0.7643  v =  0.0000 -0.0000 -0.0050 -0.0000  1.0000  0.0000  0.0000  0.0000  0.0000  0.0000      0.0000  0.0000  0.0000  0.0000  0.0000  0.0000  0.0000  0.0000  0.0000  0.0000
  o =  0.9494  v =  1.0000  0.0000  0.0000  0.0000  0.0000  0.0000  0.0000  0.0000  0.0000  0.0000      0.0000  0.0000  0.0000  0.0000  0.0000  0.0000  0.0000  0.0000  0.0000  0.0000
  o =  0.9494  v =  0.0000 -0.1487  0.0000 -0.9889 -0.0000  0.0000  0.0000  0.0000  0.0000  0.0000      0.0000  0.0000  0.0000  0.0000  0.0000  0.0000  0.0000  0.0000  0.0000  0.0000
  o =  0.9494  v =  0.0000 -0.9889  0.0000  0.1487 -0.0000  0.0000  0.0000  0.0000  0.0000  0.0000      0.0000  0.0000  0.0000  0.0000  0.0000  0.0000  0.0000  0.0000  0.0000  0.0000
atom =   3  type =  3  l = 0
 
 onsite density matrix
 
spin component  1
 
  0.7956
 
spin component  2
 
  0.7890
 
 occupancies and eigenvectors
 
  o =  0.7890  v =  0.0000  1.0000      0.0000  0.0000
  o =  0.7956  v =  1.0000  0.0000      0.0000  0.0000
atom =   4  type =  3  l = 0
 
 onsite density matrix
 
spin component  1
 
  0.7956
 
spin component  2
 
  0.7890
 
 occupancies and eigenvectors
 
  o =  0.7890  v =  0.0000  1.0000      0.0000  0.0000
  o =  0.7956  v =  1.0000  0.0000      0.0000  0.0000
atom =   5  type =  3  l = 0
 
 onsite density matrix
 
spin component  1
 
  0.7956
 
spin component  2
 
  0.7890
 
 occupancies and eigenvectors
 
  o =  0.7890  v =  0.0000  1.0000      0.0000  0.0000
  o =  0.7956  v =  1.0000  0.0000      0.0000  0.0000
    EDDIAG:  cpu time    0.0241: real time    0.0242
  RMM-DIIS:  cpu time    0.0836: real time    0.0838
    ORTHCH:  cpu time    0.0019: real time    0.0019
 BZINTS: Fermi energy:  8.166282; 36.000000 electrons
         Band energy: -77.024534;  BLOECHL correction: -0.064863
       DOS:  cpu time    0.0034: real time    0.0034
    CHARGE:  cpu time    0.0133: real time    0.0133
    MIXING:  cpu time    0.0008: real time    0.0008
    --------------------------------------------
      LOOP:  cpu time    0.1458: real time    0.1463

 eigenvalue-minimisations  :  1484
 total energy-change (2. order) :-0.2232087E-01  (-0.3986220E-01)
 number of electron      35.9999992 magnetization       4.0060689
 augmentation part        3.4058809 magnetization       2.7732589

 Broyden mixing:
  rms(total) = 0.12899E+00    rms(broyden)= 0.12897E+00
  rms(prec ) = 0.15144E+00
  weight for this iteration     100.00

 eigenvalues of (default mixing * dielectric matrix)
  average eigenvalue GAMMA=   1.0387
  2.3692  0.8505  0.8505  0.5617  0.5617

 Free energy of the ion-electron system (eV)
  ---------------------------------------------------
  alpha Z        PSCENC =       158.74615393
  Ewald energy   TEWEN  =     -2362.62040756
  -Hartree energ DENC   =      -459.83276989
  -exchange      EXHF   =         0.00000000
  -V(xc)+E(xc)   XCENC  =       107.97977301
  PAW double counting   =      2782.74110145    -2769.38779383
  entropy T*S    EENTRO =         0.00000000
  eigenvalues    EBANDS =       -77.02453425
  atomic energy  EATOM  =      2579.80103561
  Solvation  Ediel_sol  =         0.00000000
  ---------------------------------------------------
  free energy    TOTEN  =       -39.59744153 eV

[...]
  0.000  -0.000  -0.000   0.000   0.000  -0.000   0.000   0.000
 -0.000   0.000  -0.000  -0.000  -0.000  -0.000  -0.000  -0.000
 -0.000   0.000   0.000  -0.000  -0.000   0.000  -0.000  -0.000
  0.000   0.000  -0.000  -0.000  -0.000  -0.000  -0.000  -0.000
  0.000  -0.000  -0.000   0.000   0.000  -0.000   0.000   0.000
  0.000  -0.000  -0.000   0.000   0.000  -0.000   0.000   0.000
 -0.000   0.000  -0.000  -0.000   0.000  -0.000  -0.000  -0.000
 -0.000   0.000   0.000  -0.000  -0.000   0.000  -0.000  -0.000
 -0.000   0.000  -0.000  -0.000  -0.000  -0.000  -0.000  -0.000
 -0.000   0.000   0.001   0.000   0.000  -0.000  -0.000  -0.000
 -0.000   0.000   0.000  -0.000  -0.000  -0.000   0.000   0.000
  0.000  -0.000   0.001  -0.000   0.000  -0.000   0.000  -0.000
 -0.000   0.000   0.000  -0.001  -0.000  -0.000   0.001   0.000
  0.000  -0.000   0.000   0.000   0.001  -0.000  -0.000  -0.000
  0.000  -0.000   0.000  -0.000   0.000  -0.000   0.000  -0.000
  0.000  -0.000   0.000   0.000  -0.001  -0.000  -0.000   0.000
 -0.000   0.000   0.001   0.000   0.000  -0.000  -0.000  -0.000
 -0.000   0.000   0.000  -0.000  -0.000  -0.000   0.000   0.000
  0.000  -0.000   0.001  -0.000   0.000  -0.000   0.000  -0.000
 -0.000   0.000   0.000  -0.001  -0.000  -0.000   0.001   0.000
  0.000  -0.000   0.000   0.000   0.001  -0.000  -0.000  -0.000
  0.000  -0.000   0.000  -0.000   0.000  -0.000  -0.000  -0.000
  0.000  -0.000   0.000   0.000  -0.001  -0.000  -0.000   0.000
 pseudopotential strength for first ion, spin component:           2
 52.434 -43.130   0.000  -0.000   0.000   0.000  -0.000  -0.000
-43.130  27.817  -0.000   0.000   0.000   0.000  -0.000  -0.000
  0.000  -0.000  18.841   0.000   0.000 -10.978   0.000   0.000
 -0.000   0.000   0.000  18.841   0.000   0.000 -10.978   0.000
  0.000   0.000   0.000   0.000  18.841   0.000   0.000 -10.978
  0.000   0.000 -10.978   0.000   0.000  16.422  -0.000  -0.000
 -0.000  -0.000   0.000 -10.978   0.000  -0.000  16.422  -0.000
 -0.000  -0.000   0.000   0.000 -10.978  -0.000  -0.000  16.422
  0.000  -0.000   0.000   0.000   0.000   0.000   0.000   0.000
  0.000  -0.000  -0.000   0.000   0.000  -0.000   0.000   0.000
 -0.000   0.000  -0.000  -0.000  -0.000  -0.000  -0.000  -0.000
  0.000  -0.000   0.000   0.000  -0.000   0.000  -0.000  -0.000
  0.000  -0.000  -0.000  -0.000  -0.000  -0.000  -0.000  -0.000
  0.000  -0.000   0.000   0.000   0.000   0.000   0.000   0.000
  0.000  -0.000  -0.000   0.000   0.000  -0.000   0.000   0.000
 -0.000   0.000  -0.000  -0.000  -0.000  -0.000  -0.000   0.000
  0.000  -0.000   0.000   0.000  -0.000   0.000   0.000  -0.000
 -0.000   0.000  -0.000  -0.000  -0.000  -0.000  -0.000  -0.000
 -0.000   0.000   0.004   0.000  -0.000  -0.002  -0.000   0.000
 -0.000   0.000  -0.000  -0.000  -0.000   0.000   0.000   0.000
  0.000  -0.000   0.003  -0.000   0.000  -0.002   0.000  -0.000
 -0.000   0.000   0.000  -0.005   0.000  -0.000   0.003  -0.000
 -0.000   0.000   0.000  -0.000   0.003  -0.000   0.000  -0.002
  0.000  -0.000   0.000  -0.000  -0.000  -0.000   0.000   0.000
 -0.000   0.000   0.000  -0.000  -0.004  -0.000   0.000   0.002
 -0.000   0.000   0.003   0.000  -0.000  -0.002  -0.000   0.000
 -0.000   0.000  -0.000  -0.000  -0.000   0.000   0.000   0.000
  0.000  -0.000   0.003  -0.000   0.000  -0.002   0.000  -0.000
 -0.000   0.000   0.000  -0.004   0.000  -0.000   0.003  -0.000
  0.000   0.000   0.000  -0.000   0.003  -0.000   0.000  -0.002
  0.000  -0.000   0.000  -0.000  -0.000  -0.000   0.000   0.000
 -0.000  -0.000   0.000  -0.000  -0.003  -0.000   0.000   0.002
 total augmentation occupancy for first ion, spin component:           1
  1.989   0.004   0.000   0.000   0.000   0.000   0.000   0.000   0.000  -0.000  -0.000   0.000  -0.000   0.000  -0.000   0.000
  0.004   0.438   0.000   0.000   0.000   0.000   0.000   0.000   0.000   0.000   0.000  -0.000  -0.000  -0.000   0.000   0.000
  0.000   0.000   2.030  -0.000   0.000  -0.012   0.000   0.000   0.000   0.000   0.000   0.000   0.000   0.000   0.000   0.000
  0.000   0.000   0.000   2.030   0.000   0.000  -0.012   0.000   0.000   0.000   0.000   0.000   0.000   0.000   0.000   0.000
  0.000   0.000   0.000   0.000   2.030   0.000   0.000  -0.012   0.000   0.000   0.000   0.000   0.000   0.000   0.000   0.000
  0.000   0.000  -0.012  -0.000   0.000   0.011   0.000   0.000   0.000   0.000   0.000   0.000   0.000   0.000   0.000   0.000
  0.000   0.000   0.000  -0.012   0.000   0.000   0.011   0.000   0.000   0.000   0.000   0.000   0.000   0.000   0.000   0.000
  0.000   0.000   0.000   0.000  -0.012   0.000   0.000   0.011   0.000   0.000   0.000   0.000   0.000   0.000   0.000   0.000
 -0.000   0.000   0.000   0.000   0.000   0.000   0.000   0.000   1.147   0.000  -0.000   0.000   0.000  -0.520   0.000   0.000
 -0.000   0.000   0.000   0.000   0.000   0.000   0.000   0.000  -0.000   1.147   0.000  -0.000   0.000  -0.000  -0.520   0.000
  0.000   0.000   0.000   0.000   0.000   0.000   0.000   0.000  -0.000   0.000   0.856   0.000   0.000   0.000   0.000  -0.378
  0.000  -0.000   0.000   0.000   0.000   0.000   0.000   0.000  -0.000   0.000   0.000   1.147   0.000  -0.000   0.000  -0.000
  0.000  -0.000   0.000   0.000   0.000   0.000   0.000   0.000   0.000   0.000   0.000  -0.000   0.856   0.000  -0.000  -0.000
 -0.000   0.000   0.000   0.000   0.000   0.000   0.000   0.000  -0.520   0.000   0.000   0.000  -0.000   0.238  -0.000  -0.000
  0.000   0.000   0.000   0.000   0.000   0.000   0.000   0.000  -0.000  -0.520   0.000  -0.000  -0.000  -0.000   0.238   0.000
  0.000  -0.000   0.000   0.000   0.000   0.000   0.000   0.000   0.000  -0.000  -0.378  -0.000  -0.000  -0.000   0.000   0.168
 -0.000   0.000   0.000   0.000   0.000   0.000   0.000   0.000  -0.000  -0.000  -0.000  -0.520  -0.000   0.000  -0.000   0.000
  0.000   0.000   0.000   0.000   0.000   0.000   0.000   0.000   0.000  -0.000  -0.000   0.000  -0.378   0.000  -0.000   0.000
  0.000   0.000   0.018   0.000  -0.000  -0.007  -0.000   0.000   0.000   0.000   0.000   0.000   0.000   0.000   0.000   0.000
  0.000   0.000  -0.000  -0.000  -0.000  -0.000   0.000   0.000   0.000   0.000   0.000   0.000   0.000   0.000   0.000   0.000
  0.000   0.000   0.014  -0.000   0.000  -0.005  -0.000  -0.000   0.000   0.000   0.000   0.000   0.000   0.000   0.000   0.000
  0.000   0.000   0.000  -0.022   0.000   0.000   0.009  -0.000   0.000   0.000   0.000   0.000   0.000   0.000   0.000   0.000
  0.000   0.000  -0.000  -0.000   0.014  -0.000  -0.000  -0.005   0.000   0.000   0.000   0.000   0.000   0.000   0.000   0.000
  0.000   0.000  -0.000   0.000  -0.000  -0.000   0.000   0.000   0.000   0.000   0.000   0.000   0.000   0.000   0.000   0.000
  0.000   0.000   0.000  -0.000  -0.018   0.000  -0.000   0.007   0.000   0.000   0.000   0.000   0.000   0.000   0.000   0.000
  0.000   0.000  -0.025   0.000  -0.000   0.010   0.000  -0.000   0.000   0.000   0.000   0.000   0.000   0.000   0.000   0.000
  0.000   0.000  -0.000   0.000   0.000   0.000   0.000  -0.000   0.000   0.000   0.000   0.000   0.000   0.000   0.000   0.000
  0.000   0.000  -0.020  -0.000   0.000   0.008  -0.000   0.000   0.000   0.000   0.000   0.000   0.000   0.000   0.000   0.000
  0.000   0.000   0.000   0.032   0.000   0.000  -0.012  -0.000   0.000   0.000   0.000   0.000   0.000   0.000   0.000   0.000
  0.000   0.000   0.000  -0.000  -0.020  -0.000  -0.000   0.008   0.000   0.000   0.000   0.000   0.000   0.000   0.000   0.000
  0.000   0.000   0.000   0.000   0.000   0.000   0.000  -0.000   0.000   0.000   0.000   0.000   0.000   0.000   0.000   0.000
  0.000   0.000   0.000  -0.000   0.025  -0.000  -0.000  -0.010   0.000   0.000   0.000   0.000   0.000   0.000   0.000   0.000
 total augmentation occupancy for first ion, spin component:           2
 -0.000  -0.000   0.000   0.000   0.000   0.000   0.000   0.000   0.000  -0.000   0.000  -0.000   0.000   0.000   0.000   0.000
 -0.000  -0.007   0.000   0.000   0.000   0.000   0.000   0.000   0.000  -0.000   0.000   0.000   0.000   0.000   0.000  -0.000
  0.000   0.000   0.000  -0.000   0.000   0.000   0.000   0.000   0.000   0.000   0.000   0.000   0.000   0.000   0.000   0.000
  0.000   0.000  -0.000   0.000   0.000   0.000   0.000  -0.000   0.000   0.000   0.000   0.000   0.000   0.000   0.000   0.000
  0.000   0.000   0.000   0.000   0.000   0.000  -0.000   0.000   0.000   0.000   0.000   0.000   0.000   0.000   0.000   0.000
  0.000   0.000   0.000   0.000   0.000   0.000  -0.000  -0.000   0.000   0.000   0.000   0.000   0.000   0.000   0.000   0.000
  0.000   0.000   0.000   0.000  -0.000  -0.000   0.000   0.000   0.000   0.000   0.000   0.000   0.000   0.000   0.000   0.000
  0.000   0.000   0.000  -0.000   0.000  -0.000   0.000   0.000   0.000   0.000   0.000   0.000   0.000   0.000   0.000   0.000
  0.000   0.000   0.000   0.000   0.000   0.000   0.000   0.000  -0.005  -0.000  -0.000   0.000   0.000   0.002   0.000   0.000
 -0.000  -0.000   0.000   0.000   0.000   0.000   0.000   0.000   0.000  -0.005  -0.000  -0.000   0.000  -0.000   0.002  -0.000
  0.000  -0.000   0.000   0.000   0.000   0.000   0.000   0.000   0.000   0.000   0.036  -0.000   0.000  -0.000   0.000  -0.012
 -0.000   0.000   0.000   0.000   0.000   0.000   0.000   0.000   0.000   0.000  -0.000  -0.005  -0.000   0.000   0.000  -0.000
  0.000   0.000   0.000   0.000   0.000   0.000   0.000   0.000   0.000  -0.000   0.000  -0.000   0.036   0.000   0.000  -0.000
  0.000   0.000   0.000   0.000   0.000   0.000   0.000   0.000   0.002  -0.000  -0.000   0.000  -0.000  -0.001  -0.000   0.000
  0.000   0.000   0.000   0.000   0.000   0.000   0.000   0.000   0.000   0.002   0.000   0.000   0.000   0.000  -0.001   0.000
 -0.000  -0.000   0.000   0.000   0.000   0.000   0.000   0.000  -0.000  -0.000  -0.012  -0.000  -0.000   0.000   0.000   0.004
  0.000   0.000   0.000   0.000   0.000   0.000   0.000   0.000  -0.000   0.000   0.000   0.002   0.000   0.000   0.000   0.000
  0.000  -0.000   0.000   0.000   0.000   0.000   0.000   0.000   0.000   0.000  -0.000  -0.000  -0.012   0.000  -0.000   0.000
  0.000   0.000   0.001  -0.000  -0.000   0.001  -0.000   0.000   0.000   0.000   0.000   0.000   0.000   0.000   0.000   0.000
  0.000   0.000  -0.000   0.000  -0.000  -0.000   0.000   0.000   0.000   0.000   0.000   0.000   0.000   0.000   0.000   0.000
  0.000   0.000   0.001  -0.000   0.000   0.000  -0.000  -0.000   0.000   0.000   0.000   0.000   0.000   0.000   0.000   0.000
  0.000   0.000   0.000  -0.001   0.000  -0.000  -0.001  -0.000   0.000   0.000   0.000   0.000   0.000   0.000   0.000   0.000
  0.000   0.000   0.000  -0.000   0.001  -0.000  -0.000   0.000   0.000   0.000   0.000   0.000   0.000   0.000   0.000   0.000
  0.000   0.000   0.000   0.000   0.000  -0.000   0.000   0.000   0.000   0.000   0.000   0.000   0.000   0.000   0.000   0.000
  0.000   0.000   0.000   0.000  -0.001   0.000   0.000  -0.001   0.000   0.000   0.000   0.000   0.000   0.000   0.000   0.000
  0.000   0.000   0.000  -0.000   0.000  -0.001   0.000  -0.000   0.000   0.000   0.000   0.000   0.000   0.000   0.000   0.000
  0.000   0.000  -0.000   0.000   0.000  -0.000   0.000   0.000   0.000   0.000   0.000   0.000   0.000   0.000   0.000   0.000
  0.000   0.000   0.000  -0.000  -0.000  -0.001  -0.000  -0.000   0.000   0.000   0.000   0.000   0.000   0.000   0.000   0.000
  0.000   0.000   0.000  -0.000  -0.000  -0.000   0.001   0.000   0.000   0.000   0.000   0.000   0.000   0.000   0.000   0.000
  0.000   0.000  -0.000   0.000   0.000   0.000  -0.000  -0.001   0.000   0.000   0.000   0.000   0.000   0.000   0.000   0.000
  0.000   0.000   0.000   0.000   0.000   0.000   0.000  -0.000   0.000   0.000   0.000   0.000   0.000   0.000   0.000   0.000
  0.000   0.000  -0.000   0.000  -0.000   0.000   0.000   0.001   0.000   0.000   0.000   0.000   0.000   0.000   0.000   0.000


------------------------ aborting loop because EDIFF is reached ----------------------------------------


 


 total charge     
 
# of ion       s       p       d       f       tot
--------------------------------------------------
    1        1.997   5.694   0.470   0.167   8.329
    2        0.307   0.458   4.910   0.000   5.676
    3        1.570   3.363   0.000   0.000   4.932
    4        1.562   3.413   0.000   0.000   4.975
    5        1.560   3.584   0.000   0.000   5.144
--------------------------------------------------
tot          6.996  16.513   5.381   0.167  29.056

 


 magnetization (x)
 
# of ion       s       p       d       f       tot
--------------------------------------------------
    1       -0.001   0.001   0.012  -0.010   0.002
    2        0.025   0.029   3.895   0.000   3.949
    3        0.000  -0.035   0.000   0.000  -0.035
    4        0.003  -0.031   0.000   0.000  -0.027
    5        0.016  -0.015   0.000   0.000   0.001
--------------------------------------------------
tot          0.044  -0.051   3.907  -0.010   3.890

 
    CHARGE:  cpu time    0.0134: real time    0.0134
    FORLOC:  cpu time    0.0010: real time    0.0010
    FORNL :  cpu time    0.0446: real time    0.0448
    STRESS:  cpu time    0.1317: real time    0.1323
    FORCOR:  cpu time    0.0128: real time    0.0129
    FORHAR:  cpu time    0.0023: real time    0.0024
    MIXING:  cpu time    0.0010: real time    0.0010
    OFIELD:  cpu time    0.0001: real time    0.0002

  FORCE on cell =-STRESS in cart. coord.  units (eV):
  Direction    XX          YY          ZZ          XY          YZ          ZX
  --------------------------------------------------------------------------------------
  Alpha Z   158.74615   158.74615   158.74615
  Ewald    -787.54072  -787.54072  -787.54072     0.00000    -0.00000    -0.00000
  Hartree   153.53579   153.53579   153.53579    -0.00000    -0.00000    -0.00000
  E(xc)    -164.18826  -164.18826  -164.18826    -0.00000    -0.00000    -0.00000
  Local     -66.97792   -66.97792   -66.97792     0.00000    -0.00000     0.00000
  n-local    64.11892    62.53444    62.18895    -0.56492    -0.07941    -0.21895
  augment     8.35363     8.35363     8.35363     0.00000     0.00000    -0.00000
  Kinetic   619.54698   637.15843   648.92721    -2.45958    -2.73744    -1.78338
  Fock        0.00000     0.00000     0.00000     0.00000     0.00000     0.00000
  -------------------------------------------------------------------------------------
  Total       0.08698     0.08698     0.08698    -0.00000    -0.00000    -0.00000
  in kB       2.27825     2.27825     2.27825    -0.00000    -0.00000    -0.00000
  external pressure =        2.28 kB  Pullay stress =        0.00 kB


 VOLUME and BASIS-vectors are now :
 -----------------------------------------------------------------------------
  energy-cutoff  :      520.00
  volume of cell :       61.17
      direct lattice vectors                 reciprocal lattice vectors
     3.940144710  0.000000000  0.000000000     0.253797785  0.000000000  0.000000000
     0.000000000  3.940144710  0.000000000     0.000000000  0.253797785  0.000000000
     0.000000000  0.000000000  3.940144710     0.000000000  0.000000000  0.253797785

  length of vectors
     3.940144710  3.940144710  3.940144710     0.253797785  0.253797785  0.253797785


 FORCES acting on ions
    electron-ion (+dipol)            ewald-force                    non-local-force                 convergence-correction
 -----------------------------------------------------------------------------------------------
   -.608E-14 -.113E-13 -.190E-14   0.239E-14 0.144E-14 -.512E-14   0.000E+00 0.000E+00 0.000E+00   0.174E-13 0.781E-14 -.188E-13
   0.586E-13 0.167E-11 -.166E-12   0.762E-14 0.109E-14 0.166E-14   0.000E+00 0.000E+00 0.000E+00   -.906E-14 0.101E-13 0.282E-13
   -.537E-14 0.123E-12 0.106E-12   -.621E-14 -.541E-14 0.404E-14   0.000E+00 0.000E+00 0.000E+00   0.260E-13 -.235E-13 0.498E-13
   0.114E-12 0.124E-13 -.260E-12   0.591E-14 -.846E-15 0.403E-14   0.000E+00 0.000E+00 0.000E+00   0.608E-14 0.188E-13 0.472E-13
   0.119E-12 0.177E-11 -.110E-11   -.717E-14 0.305E-14 -.529E-14   0.000E+00 0.000E+00 0.000E+00   0.199E-13 -.199E-13 -.406E-13
 -----------------------------------------------------------------------------------------------
   0.280E-12 0.357E-11 -.142E-11   0.255E-14 -.677E-15 -.676E-15   0.000E+00 0.000E+00 0.000E+00   0.604E-13 -.676E-14 0.659E-13
 
 
 POSITION                                       TOTAL-FORCE (eV/Angst)
 -----------------------------------------------------------------------------------
      0.00000      0.00000      0.00000         0.000000      0.000000      0.000000
      1.97007      1.97007      1.97007         0.000000      0.000000      0.000000
      0.00000      1.97007      1.97007         0.000000      0.000000      0.000000
      1.97007      0.00000      1.97007         0.000000      0.000000      0.000000
      1.97007      1.97007      0.00000         0.000000      0.000000      0.000000
 -----------------------------------------------------------------------------------
    total drift:                                0.000000      0.000000     -0.000000


--------------------------------------------------------------------------------------------------------



  FREE ENERGIE OF THE ION-ELECTRON SYSTEM (eV)
  ---------------------------------------------------
  free  energy   TOTEN  =       -39.62277944 eV

  energy  without entropy=      -39.62277944  energy(sigma->0) =      -39.62277944
 


--------------------------------------------------------------------------------------------------------


    POTLOK:  cpu time    0.0188: real time    0.0188


--------------------------------------------------------------------------------------------------------


     LOOP+:  cpu time    2.6154: real time    2.6394
    4ORBIT:  cpu time    0.0000: real time    0.0000
 


 total charge     
 
# of ion       s       p       d       f       tot
--------------------------------------------------
    1        1.997   5.694   0.470   0.167   8.329
    2        0.307   0.458   4.910   0.000   5.676
    3        1.570   3.363   0.000   0.000   4.932
    4        1.562   3.413   0.000   0.000   4.975
    5        1.560   3.584   0.000   0.000   5.144
--------------------------------------------------
tot          6.996  16.513   5.381   0.167  29.056

 


 magnetization (x)
 
# of ion       s       p       d       f       tot
--------------------------------------------------
    1       -0.001   0.001   0.012  -0.010   0.002
    2        0.025   0.029   3.895   0.000   3.949
    3        0.000  -0.035   0.000   0.000  -0.035
    4        0.003  -0.031   0.000   0.000  -0.027
    5        0.016  -0.015   0.000   0.000   0.001
--------------------------------------------------
tot          0.044  -0.051   3.907  -0.010   3.890

 
 BZINTS: Fermi energy:  8.088546; 36.000000 electrons
         Band energy: -76.505946;  BLOECHL correction: -0.073496

 total amount of memory used by VASP MPI-rank0    33650. kBytes
=======================================================================

   base      :      30000. kBytes
   nonlr-proj:       1115. kBytes
   fftplans  :        459. kBytes
   grid      :       1195. kBytes
   one-center:         98. kBytes
   wavefun   :        783. kBytes
 
  
  
 General timing and accounting informations for this job:
 ========================================================
  
                  Total CPU time used (sec):        4.078
                            User time (sec):        3.675
                          System time (sec):        0.403
                         Elapsed time (sec):        4.163
  
                   Maximum memory used (kb):       60388.
                   Average memory used (kb):           0.
  
                          Minor page faults:        12210
                          Major page faults:            0
                 Voluntary context switches:         1105
