 vasp.5.4.4.18Apr17-6-g9f103f2a35 (build Oct 03 2018 13:58:34) complex          
  
 executed on             LinuxIFC date 2019.06.04  01:49:07
 running on   40 total cores
 distrk:  each k-point on   20 cores,    2 groups
 distr:  one band on NCORES_PER_BAND=  10 cores,    2 groups


--------------------------------------------------------------------------------------------------------


 INCAR:
 POTCAR:    PAW_PBE La 06Sep2000                  
 POTCAR:    PAW_PBE Mn 06Sep2000                  
 POTCAR:    PAW_PBE Ni 02Aug2007                  
 POTCAR:    PAW_PBE O 08Apr2002                   

 ----------------------------------------------------------------------------- 
|                                                                             |
|           W    W    AA    RRRRR   N    N  II  N    N   GGGG   !!!           |
|           W    W   A  A   R    R  NN   N  II  NN   N  G    G  !!!           |
|           W    W  A    A  R    R  N N  N  II  N N  N  G       !!!           |
|           W WW W  AAAAAA  RRRRR   N  N N  II  N  N N  G  GGG   !            |
|           WW  WW  A    A  R   R   N   NN  II  N   NN  G    G                |
|           W    W  A    A  R    R  N    N  II  N    N   GGGG   !!!           |
|                                                                             |
|      You have enabled k-point parallelism (KPAR>1).                         |
|      This developmental code was originally  written by Paul Kent at ORNL,  |
|      and carefully double checked in Vienna.                                |
|      GW as well as linear response parallelism added by Martijn Marsman     |
|      and Georg Kresse.                                                      |
|      Carefully verify results versus KPAR=1.                                |
|      Report problems to Paul Kent and Vienna.                               |
|                                                                             |
 ----------------------------------------------------------------------------- 

 POTCAR:    PAW_PBE La 06Sep2000                  
   VRHFIN =La : [core=Kr4d]                                                     
   LEXCH  = PE                                                                  
   EATOM  =   865.9763 eV,   63.6475 Ry                                         
                                                                                
   TITEL  = PAW_PBE La 06Sep2000                                                
   LULTRA =        F    use ultrasoft PP ?                                      
   IUNSCR =        1    unscreen: 0-lin 1-nonlin 2-no                           
   RPACOR =    2.300    partial core radius                                     
   POMASS =  138.900; ZVAL   =   11.000    mass and valenz                      
   RCORE  =    2.800    outmost cutoff radius                                   
   RWIGS  =    2.900; RWIGS  =    1.535    wigner-seitz radius (au A)           
   ENMAX  =  219.292; ENMIN  =  164.469 eV                                      
   RCLOC  =    1.601    cutoff for local pot                                    
   LCOR   =        T    correct aug charges                                     
   LPAW   =        T    paw PP                                                  
   EAUG   =  583.575                                                            
   DEXC   =    0.000                                                            
   RMAX   =    2.853    core radius for proj-oper                               
   RAUG   =    1.300    factor for augmentation sphere                          
   RDEP   =    2.802    radius for radial grids                                 
   RDEPT  =    2.156    core radius for aug-charge                              
                                                                                
   Atomic configuration                                                         
   14 entries                                                                   
     n  l   j            E        occ.                                          
     1  0  0.50    -38741.0879   2.0000                                         
     2  0  0.50     -6166.6801   2.0000                                         
     2  1  1.50     -5526.1593   6.0000                                         
     3  0  0.50     -1319.0200   2.0000                                         
     3  1  1.50     -1114.5963   6.0000                                         
     3  2  2.50      -821.1793  10.0000                                         
     4  0  0.50      -266.3851   2.0000                                         
     4  1  1.50      -199.9276   6.0000                                         
     4  2  2.50      -103.8239  10.0000                                         
     5  0  0.50       -38.9172   2.0000                                         
     6  0  0.50        -3.6792   2.0000                                         
     5  1  1.50       -22.3948   6.0000                                         
     5  2  2.50        -3.0911   0.9999                                         
     4  3  2.50        -4.3603   0.0001                                         
   Description                                                                  
     l       E           TYP  RCUT    TYP  RCUT                                 
     0    -38.9171645     23  2.800                                             
     0     -3.6792381     23  2.800                                             
     1    -22.3948300     23  2.500                                             
     1     27.2116520     23  2.500                                             
     2     -3.0910934     23  2.500                                             
     2      1.0119135     23  2.500                                             
     3     -4.3602911     23  2.800                                             
     3     -5.7208737     23  2.800                                             
  local pseudopotential read in
  partial core-charges read in
  partial kinetic energy density read in
  atomic valenz-charges read in
  non local Contribution for L=           0  read in
    real space projection operators read in
  non local Contribution for L=           0  read in
    real space projection operators read in
  non local Contribution for L=           1  read in
    real space projection operators read in
  non local Contribution for L=           1  read in
    real space projection operators read in
  non local Contribution for L=           2  read in
    real space projection operators read in
  non local Contribution for L=           2  read in
    real space projection operators read in
  non local Contribution for L=           3  read in
    real space projection operators read in
  non local Contribution for L=           3  read in
    real space projection operators read in
    PAW grid and wavefunctions read in
 
   number of l-projection  operators is LMAX  =           8
   number of lm-projection operators is LMMAX =          32
 
 POTCAR:    PAW_PBE Mn 06Sep2000                  
   VRHFIN =Mn: d6 s1                                                            
   LEXCH  = PE                                                                  
   EATOM  =   416.7541 eV,   30.6306 Ry                                         
                                                                                
   TITEL  = PAW_PBE Mn 06Sep2000                                                
   LULTRA =        F    use ultrasoft PP ?                                      
   IUNSCR =        1    unscreen: 0-lin 1-nonlin 2-no                           
   RPACOR =    2.000    partial core radius                                     
   POMASS =   54.938; ZVAL   =    7.000    mass and valenz                      
   RCORE  =    2.300    outmost cutoff radius                                   
   RWIGS  =    2.500; RWIGS  =    1.323    wigner-seitz radius (au A)           
   ENMAX  =  269.864; ENMIN  =  202.398 eV                                      
   RCLOC  =    1.725    cutoff for local pot                                    
   LCOR   =        T    correct aug charges                                     
   LPAW   =        T    paw PP                                                  
   EAUG   =  500.711                                                            
   DEXC   =    0.000                                                            
   RMAX   =    2.343    core radius for proj-oper                               
   RAUG   =    1.300    factor for augmentation sphere                          
   RDEP   =    2.338    radius for radial grids                                 
   RDEPT  =    1.911    core radius for aug-charge                              
                                                                                
   Atomic configuration                                                         
    9 entries                                                                   
     n  l   j            E        occ.                                          
     1  0  0.50     -6424.8288   2.0000                                         
     2  0  0.50      -739.1154   2.0000                                         
     2  1  1.50      -625.3949   6.0000                                         
     3  0  0.50       -81.6100   2.0000                                         
     3  1  1.50       -50.4667   6.0000                                         
     3  2  2.50        -3.3745   6.0000                                         
     4  0  0.50        -4.1331   1.0000                                         
     4  1  0.50        -4.0817   0.0000                                         
     4  3  2.50        -1.3606   0.0000                                         
   Description                                                                  
     l       E           TYP  RCUT    TYP  RCUT                                 
     2     -3.3744664     23  2.300                                             
     2     -4.7350490     23  2.300                                             
     0     -4.1331408     23  2.300                                             
     0      7.6656614     23  2.300                                             
     1     -2.7211652     23  2.300                                             
     1     20.4087390     23  2.300                                             
  local pseudopotential read in
  partial core-charges read in
  partial kinetic energy density read in
  atomic valenz-charges read in
  non local Contribution for L=           2  read in
    real space projection operators read in
  non local Contribution for L=           2  read in
    real space projection operators read in
  non local Contribution for L=           0  read in
    real space projection operators read in
  non local Contribution for L=           0  read in
    real space projection operators read in
  non local Contribution for L=           1  read in
    real space projection operators read in
  non local Contribution for L=           1  read in
    real space projection operators read in
    PAW grid and wavefunctions read in
 
   number of l-projection  operators is LMAX  =           6
   number of lm-projection operators is LMMAX =          18
 
 POTCAR:    PAW_PBE Ni 02Aug2007                  
   VRHFIN =Ni:                                                                  
   LEXCH  = PE                                                                  
   EATOM  =  1077.6739 eV,   79.2068 Ry                                         
                                                                                
   TITEL  = PAW_PBE Ni 02Aug2007                                                
   LULTRA =        F    use ultrasoft PP ?                                      
   IUNSCR =        1    unscreen: 0-lin 1-nonlin 2-no                           
   RPACOR =    2.000    partial core radius                                     
   POMASS =   58.690; ZVAL   =   10.000    mass and valenz                      
   RCORE  =    2.300    outmost cutoff radius                                   
   RWIGS  =    2.430; RWIGS  =    1.286    wigner-seitz radius (au A)           
   ENMAX  =  269.532; ENMIN  =  202.149 eV                                      
   RCLOC  =    1.201    cutoff for local pot                                    
   LCOR   =        T    correct aug charges                                     
   LPAW   =        T    paw PP                                                  
   EAUG   =  544.565                                                            
   DEXC   =    0.000                                                            
   RMAX   =    2.357    core radius for proj-oper                               
   RAUG   =    1.300    factor for augmentation sphere                          
   RDEP   =    2.390    radius for radial grids                                 
   RDEPT  =    1.838    core radius for aug-charge                              
                                                                                
   Atomic configuration                                                         
    9 entries                                                                   
     n  l   j            E        occ.                                          
     1  0  0.50     -8206.4253   2.0000                                         
     2  0  0.50      -976.1748   2.0000                                         
     2  1  1.50      -839.0571   6.0000                                         
     3  0  0.50      -105.9991   2.0000                                         
     3  1  1.50       -66.4603   6.0000                                         
     3  2  2.50        -4.6458   9.0000                                         
     4  0  0.50        -4.4926   1.0000                                         
     4  1  1.50        -4.0817   0.0000                                         
     4  3  2.50        -1.3606   0.0000                                         
   Description                                                                  
     l       E           TYP  RCUT    TYP  RCUT                                 
     2     -4.6457903     23  2.300                                             
     2     -6.0063729     23  2.300                                             
     0     -4.4925590     23  2.300                                             
     0      5.0102601     23  2.300                                             
     1     -2.7211652     23  2.300                                             
     1     16.5183231     23  2.300                                             
  local pseudopotential read in
  partial core-charges read in
  partial kinetic energy density read in
  atomic valenz-charges read in
  non local Contribution for L=           2  read in
    real space projection operators read in
  non local Contribution for L=           2  read in
    real space projection operators read in
  non local Contribution for L=           0  read in
    real space projection operators read in
  non local Contribution for L=           0  read in
    real space projection operators read in
  non local Contribution for L=           1  read in
    real space projection operators read in
  non local Contribution for L=           1  read in
    real space projection operators read in
    PAW grid and wavefunctions read in
 
   number of l-projection  operators is LMAX  =           6
   number of lm-projection operators is LMMAX =          18
 
 POTCAR:    PAW_PBE O 08Apr2002                   
   VRHFIN =O: s2p4                                                              
   LEXCH  = PE                                                                  
   EATOM  =   432.3788 eV,   31.7789 Ry                                         
                                                                                
   TITEL  = PAW_PBE O 08Apr2002                                                 
   LULTRA =        F    use ultrasoft PP ?                                      
   IUNSCR =        1    unscreen: 0-lin 1-nonlin 2-no                           
   RPACOR =    1.200    partial core radius                                     
   POMASS =   16.000; ZVAL   =    6.000    mass and valenz                      
   RCORE  =    1.520    outmost cutoff radius                                   
   RWIGS  =    1.550; RWIGS  =    0.820    wigner-seitz radius (au A)           
   ENMAX  =  400.000; ENMIN  =  300.000 eV                                      
   ICORE  =        2    local potential                                         
   LCOR   =        T    correct aug charges                                     
   LPAW   =        T    paw PP                                                  
   EAUG   =  605.392                                                            
   DEXC   =    0.000                                                            
   RMAX   =    1.553    core radius for proj-oper                               
   RAUG   =    1.300    factor for augmentation sphere                          
   RDEP   =    1.550    radius for radial grids                                 
   RDEPT  =    1.329    core radius for aug-charge                              
                                                                                
   Atomic configuration                                                         
    4 entries                                                                   
     n  l   j            E        occ.                                          
     1  0  0.50      -514.6923   2.0000                                         
     2  0  0.50       -23.9615   2.0000                                         
     2  1  0.50        -9.0305   4.0000                                         
     3  2  1.50        -9.5241   0.0000                                         
   Description                                                                  
     l       E           TYP  RCUT    TYP  RCUT                                 
     0    -23.9615318     23  1.200                                             
     0     -9.5240782     23  1.200                                             
     1     -9.0304911     23  1.520                                             
     1      8.1634956     23  1.520                                             
     2     -9.5240782      7  1.500                                             
  local pseudopotential read in
  partial core-charges read in
  partial kinetic energy density read in
  kinetic energy density of atom read in
  atomic valenz-charges read in
  non local Contribution for L=           0  read in
    real space projection operators read in
  non local Contribution for L=           0  read in
    real space projection operators read in
  non local Contribution for L=           1  read in
    real space projection operators read in
  non local Contribution for L=           1  read in
    real space projection operators read in
    PAW grid and wavefunctions read in
 
   number of l-projection  operators is LMAX  =           4
   number of lm-projection operators is LMMAX =           8
 
 Optimization of the real space projectors (new method)

 maximal supplied QI-value         = 13.42
 optimisation between [QCUT,QGAM] = [ 11.67, 23.35] = [ 38.16,152.62] Ry 
 Optimized for a Real-space Cutoff    1.63 Angstroem

   l    n(q)    QCUT    max X(q) W(low)/X(q) W(high)/X(q)  e(spline) 
   0     11    11.673    13.882    0.27E-04    0.79E-05    0.11E-06
   0     11    11.673    12.184    0.39E-04    0.13E-04    0.19E-06
   1     11    11.673     4.523    0.73E-05    0.76E-05    0.12E-06
   1     11    11.673     4.424    0.87E-05    0.13E-04    0.19E-06
   2     10    11.673    52.481    0.65E-04    0.36E-04    0.18E-06
   2     10    11.673    38.501    0.61E-04    0.33E-04    0.17E-06
   3     10    11.673    65.631    0.17E-03    0.14E-03    0.37E-06
   3     10    11.673    56.854    0.17E-03    0.14E-03    0.37E-06
 Optimization of the real space projectors (new method)

 maximal supplied QI-value         = 16.25
 optimisation between [QCUT,QGAM] = [ 11.54, 23.24] = [ 37.28,151.24] Ry 
 Optimized for a Real-space Cutoff    1.53 Angstroem

   l    n(q)    QCUT    max X(q) W(low)/X(q) W(high)/X(q)  e(spline) 
   2     10    11.539   110.144    0.12E-03    0.13E-03    0.25E-06
   2     10    11.539   103.200    0.12E-03    0.13E-03    0.25E-06
   0     11    11.539    68.437    0.46E-04    0.21E-04    0.32E-06
   0     11    11.539    33.971    0.37E-04    0.19E-04    0.29E-06
   1     10    11.539    17.065    0.51E-04    0.22E-04    0.13E-06
   1     10    11.539    12.540    0.41E-04    0.18E-04    0.11E-06
 Optimization of the real space projectors (new method)

 maximal supplied QI-value         = 16.25
 optimisation between [QCUT,QGAM] = [ 11.54, 23.24] = [ 37.28,151.24] Ry 
 Optimized for a Real-space Cutoff    1.45 Angstroem

   l    n(q)    QCUT    max X(q) W(low)/X(q) W(high)/X(q)  e(spline) 
   2      9    11.539    60.317    0.19E-03    0.47E-04    0.16E-06
   2      9    11.539    55.921    0.19E-03    0.48E-04    0.16E-06
   0     10    11.539    51.690    0.80E-04    0.50E-04    0.24E-06
   0     10    11.539    30.015    0.73E-04    0.45E-04    0.22E-06
   1     10    11.539    18.849    0.87E-04    0.16E-03    0.71E-07
   1     10    11.539    14.624    0.73E-04    0.13E-03    0.64E-07
 Optimization of the real space projectors (new method)

 maximal supplied QI-value         = 24.76
 optimisation between [QCUT,QGAM] = [ 11.64, 23.27] = [ 37.91,151.63] Ry 
 Optimized for a Real-space Cutoff    1.14 Angstroem

   l    n(q)    QCUT    max X(q) W(low)/X(q) W(high)/X(q)  e(spline) 
   0      8    11.635    20.381    0.10E-03    0.33E-03    0.24E-06
   0      8    11.635    15.268    0.11E-03    0.35E-03    0.26E-06
   1      7    11.635     5.964    0.24E-03    0.31E-03    0.30E-06
   1      7    11.635     5.382    0.22E-03    0.25E-03    0.26E-06
  PAW_PBE La 06Sep2000                  :
 energy of atom  1       EATOM= -865.9763
 kinetic energy error for atom=    0.0009 (will be added to EATOM!!)
  PAW_PBE Mn 06Sep2000                  :
 energy of atom  2       EATOM= -416.7541
 kinetic energy error for atom=    0.0024 (will be added to EATOM!!)
  PAW_PBE Ni 02Aug2007                  :
 energy of atom  3       EATOM=-1077.6739
 kinetic energy error for atom=    0.0030 (will be added to EATOM!!)
  PAW_PBE O 08Apr2002                   :
 energy of atom  4       EATOM= -432.3788
 kinetic energy error for atom=    0.0208 (will be added to EATOM!!)
 
 
 POSCAR: SCEL6_1_2_3_0_0_0/2                     
  positions in direct lattice
  velocities in cartesian coordinates
 exchange correlation table for  LEXCH =        8
   RHO(1)=    0.500       N(1)  =     2000
   RHO(2)=  100.500       N(2)  =     4000
 


--------------------------------------------------------------------------------------------------------


 ion  position               nearest neighbor table
   1  0.000  0.495  0.328-  30 2.66  21 2.70  21 2.70  27 2.72  14 2.73  14 2.73  26 2.77  17 2.79
                            17 2.79  23 2.80  23 2.80  12 3.31  12 3.31   9 3.37   9 3.37   7 3.39
   2  0.000  0.005  0.672-  28 2.66  22 2.70  22 2.70  25 2.72  16 2.73  16 2.73  26 2.77  13 2.79
                            13 2.79  20 2.80  20 2.80  11 3.31  11 3.31   8 3.37   8 3.37   7 3.39
   3  0.000  0.485  0.000-  18 2.67  18 2.67  30 2.69  28 2.69  21 2.77  19 2.77  19 2.77  21 2.77
                            12 3.31  12 3.31  11 3.31  11 3.31   6 3.66
   4  0.000  0.005  0.328-  30 2.66  24 2.70  24 2.70  27 2.72  14 2.73  14 2.73  26 2.77  17 2.79
                            17 2.79  20 2.80  20 2.80  12 3.31  12 3.31   9 3.37   9 3.37   7 3.39
   5  0.000  0.495  0.672-  28 2.66  19 2.70  19 2.70  25 2.72  16 2.73  16 2.73  26 2.77  13 2.79
                            13 2.79  23 2.80  23 2.80  11 3.31  11 3.31   8 3.37   8 3.37   7 3.39
   6  0.000  0.015  0.000-  18 2.67  18 2.67  30 2.69  28 2.69  24 2.77  22 2.77  22 2.77  24 2.77
                            12 3.31  12 3.31  11 3.31  11 3.31   3 3.66
   7  0.500  0.250  0.500-  14 1.90  16 1.90  20 1.94  23 1.94  26 1.95  26 1.95   4 3.39   5 3.39
                             1 3.39   1 3.39   2 3.39   4 3.39   5 3.39   2 3.39
   8  0.500  0.750  0.834-  19 1.90  22 1.90  15 1.94  25 1.95  25 1.95  13 1.95   2 3.37   2 3.37
                             5 3.37   5 3.37
   9  0.500  0.750  0.166-  21 1.90  24 1.90  15 1.94  27 1.95  27 1.95  17 1.95   1 3.37   1 3.37
                             4 3.37   4 3.37
  10  0.500  0.750  0.500-  29 1.95  29 1.95  13 1.95  17 1.95  20 1.96  23 1.96
  11  0.500  0.250  0.833-  28 1.95  28 1.95  18 1.96  16 1.98  19 2.00  22 2.00   2 3.31   2 3.31
                             5 3.31   5 3.31   3 3.31   3 3.31   6 3.31   6 3.31
  12  0.500  0.250  0.167-  30 1.95  30 1.95  18 1.96  14 1.98  21 2.00  24 2.00   1 3.31   1 3.31
                             4 3.31   4 3.31   3 3.31   3 3.31   6 3.31   6 3.31
  13  0.500  0.750  0.667-  10 1.95   8 1.95   2 2.79   5 2.79   2 2.79   5 2.79
  14  0.500  0.250  0.337-   7 1.90  12 1.98   1 2.73   4 2.73   1 2.73   4 2.73
  15  0.500  0.750  0.000-   8 1.94   9 1.94
  16  0.500  0.250  0.663-   7 1.90  11 1.98   2 2.73   5 2.73   2 2.73   5 2.73
  17  0.500  0.750  0.333-  10 1.95   9 1.95   1 2.79   4 2.79   1 2.79   4 2.79
  18  0.500  0.250  0.000-  11 1.96  12 1.96   3 2.67   6 2.67   3 2.67   6 2.67
  19  0.500  0.506  0.832-   8 1.90  11 2.00   5 2.70   5 2.70   3 2.77   3 2.77
  20  0.500  0.001  0.500-   7 1.94  10 1.96   2 2.80   4 2.80   2 2.80   4 2.80
  21  0.500  0.506  0.168-   9 1.90  12 2.00   1 2.70   1 2.70   3 2.77   3 2.77
  22  0.500  0.994  0.832-   8 1.90  11 2.00   2 2.70   2 2.70   6 2.77   6 2.77
  23  0.500  0.499  0.500-   7 1.94  10 1.96   1 2.80   5 2.80   1 2.80   5 2.80
  24  0.500  0.994  0.168-   9 1.90  12 2.00   4 2.70   4 2.70   6 2.77   6 2.77
  25  0.000  0.750  0.831-   8 1.95   8 1.95   2 2.72   5 2.72
  26  0.000  0.250  0.500-   7 1.95   7 1.95   4 2.77   5 2.77   1 2.77   2 2.77
  27  0.000  0.750  0.169-   9 1.95   9 1.95   1 2.72   4 2.72
  28  0.000  0.250  0.831-  11 1.95  11 1.95   2 2.66   5 2.66   3 2.69   6 2.69
  29  0.000  0.750  0.500-  10 1.95  10 1.95
  30  0.000  0.250  0.169-  12 1.95  12 1.95   1 2.66   4 2.66   3 2.69   6 2.69
 
  LATTYP: Found a simple orthorhombic cell.
 ALAT       =     3.8921883980
 B/A-ratio  =     2.0036241364
 C/A-ratio  =     3.0039436832
  
  Lattice vectors:
  
 A1 = (   3.8921883980,   0.0000000000,   0.0000000000)
 A2 = (   0.0000000000,   7.7984826177,   0.0000000000)
 A3 = (   0.0000000000,   0.0000000000,  11.6919147520)


Analysis of symmetry for initial positions (statically):
=====================================================================
 Subroutine PRICEL returns:
 Original cell was already a primitive cell.
 

 Routine SETGRP: Setting up the symmetry group for a 
 simple orthorhombic supercell.


 Subroutine GETGRP returns: Found  8 space group operations
 (whereof  4 operations were pure point group operations)
 out of a pool of  8 trial point group operations.


The static configuration has the point symmetry C_2v.
 The point group associated with its full space group is D_2h.


Analysis of symmetry for dynamics (positions and initial velocities):
=====================================================================
 Subroutine PRICEL returns:
 Original cell was already a primitive cell.
 

 Routine SETGRP: Setting up the symmetry group for a 
 simple orthorhombic supercell.


 Subroutine GETGRP returns: Found  8 space group operations
 (whereof  4 operations were pure point group operations)
 out of a pool of  8 trial point group operations.


The dynamic configuration has the point symmetry C_2v.
 The point group associated with its full space group is D_2h.


Analysis of structural, dynamic, and magnetic symmetry:
=====================================================================
 Subroutine PRICEL returns:
 Original cell was already a primitive cell.
 

 Routine SETGRP: Setting up the symmetry group for a 
 simple orthorhombic supercell.


 Subroutine GETGRP returns: Found  8 space group operations
 (whereof  4 operations were pure point group operations)
 out of a pool of  8 trial point group operations.


The magnetic configuration has the point symmetry C_2v.
 The point group associated with its full space group is D_2h.


 Subroutine INISYM returns: Found  8 space group operations
 (whereof  4 operations are pure point group operations),
 and found     1 'primitive' translations

 
 
 KPOINTS: Automatic mesh                          

Automatic generation of k-mesh.
 generate k-points for:    5    3    2
Space group operators:
 irot       det(A)        alpha          n_x          n_y          n_z        tau_x        tau_y        tau_z
    1     1.000000     0.000000     1.000000     0.000000     0.000000     0.000000     0.000000     0.000000
    2    -1.000000   180.000000     0.000000     0.000000     1.000000     0.000000     0.000000     0.000000
    3     1.000000   180.000000     0.000000     1.000000     0.000000     0.000000     0.000000     0.000000
    4    -1.000000   179.999999     1.000000     0.000000     0.000000     0.000000     0.000000     0.000000
    5    -1.000000     0.000000     1.000000     0.000000     0.000000     0.000000     0.500000     0.000000
    6     1.000000   180.000000     0.000000     0.000000     1.000000     0.000000     0.500000     0.000000
    7    -1.000000   180.000000     0.000000     1.000000     0.000000     0.000000     0.500000     0.000000
    8     1.000000   179.999999     1.000000     0.000000     0.000000     0.000000     0.500000     0.000000
 
 Subroutine IBZKPT returns following result:
 ===========================================
 
 Found     12 irreducible k-points:
 
 Following reciprocal coordinates:
            Coordinates               Weight
  0.000000  0.000000  0.000000      1.000000
  0.200000  0.000000  0.000000      2.000000
  0.400000  0.000000  0.000000      2.000000
  0.000000  0.333333  0.000000      2.000000
  0.200000  0.333333  0.000000      4.000000
  0.400000  0.333333  0.000000      4.000000
  0.000000  0.000000  0.500000      1.000000
  0.200000  0.000000  0.500000      2.000000
  0.400000  0.000000  0.500000      2.000000
  0.000000  0.333333  0.500000      2.000000
  0.200000  0.333333  0.500000      4.000000
  0.400000  0.333333  0.500000      4.000000
 
 Following cartesian coordinates:
            Coordinates               Weight
  0.000000  0.000000  0.000000      1.000000
  0.051385  0.000000  0.000000      2.000000
  0.102770  0.000000  0.000000      2.000000
  0.000000  0.042743  0.000000      2.000000
  0.051385  0.042743  0.000000      4.000000
  0.102770  0.042743  0.000000      4.000000
  0.000000  0.000000  0.042765      1.000000
  0.051385  0.000000  0.042765      2.000000
  0.102770  0.000000  0.042765      2.000000
  0.000000  0.042743  0.042765      2.000000
  0.051385  0.042743  0.042765      4.000000
  0.102770  0.042743  0.042765      4.000000
 
 TETIRR: Found     87 inequivalent tetrahedra from      180


--------------------------------------------------------------------------------------------------------




 Dimension of arrays:
   k-points           NKPTS =     12   k-points in BZ     NKDIM =     12   number of bands    NBANDS=    144
   number of dos      NEDOS =    301   number of ions     NIONS =     30
   non local maximal  LDIM  =      8   non local SUM 2l+1 LMDIM =     32
   total plane-waves  NPLWV = 162000
   max r-space proj   IRMAX =   8288   max aug-charges    IRDMAX=  24049
   dimension x,y,z NGX =    30 NGY =   60 NGZ =   90
   dimension x,y,z NGXF=    60 NGYF=  120 NGZF=  180
   support grid    NGXF=    60 NGYF=  120 NGZF=  180
   ions per type =               6   4   2  18
   NGX,Y,Z   is equivalent  to a cutoff of  12.81, 12.79, 12.80 a.u.
   NGXF,Y,Z  is equivalent  to a cutoff of  25.63, 25.58, 25.59 a.u.

 SYSTEM =  final                                   
 POSCAR =  SCEL6_1_2_3_0_0_0/2                     

 Startparameter for this run:
   NWRITE =      2    write-flag & timer
   PREC   = accura    normal or accurate (medium, high low for compatibility)
   ISTART =      0    job   : 0-new  1-cont  2-samecut
   ICHARG =      1    charge: 1-file 2-atom 10-const
   ISPIN  =      2    spin polarized calculation?
   LNONCOLLINEAR =      F non collinear calculations
   LSORBIT =      F    spin-orbit coupling
   INIWAV =      1    electr: 0-lowe 1-rand  2-diag
   LASPH  =      F    aspherical Exc in radial PAW
   METAGGA=      F    non-selfconsistent MetaGGA calc.

 Electronic Relaxation 1
   ENCUT  =  520.0 eV  38.22 Ry    6.18 a.u.   7.24 14.50 21.74*2*pi/ulx,y,z
   ENINI  =  520.0     initial cutoff
   ENAUG  =  605.4 eV  augmentation charge cutoff
   NELM   =    100;   NELMIN=  2; NELMDL= -5     # of ELM steps 
   EDIFF  = 0.1E-02   stopping-criterion for ELM
   LREAL  =      T    real-space projection
   NLSPLINE    = F    spline interpolate recip. space projectors
   LCOMPAT=      F    compatible to vasp.4.4
   GGA_COMPAT  = T    GGA compatible to vasp.4.4-vasp.4.6
   LMAXPAW     = -100 max onsite density
   LMAXMIX     =    6 max onsite mixed and CHGCAR
   VOSKOWN=      0    Vosko Wilk Nusair interpolation
   ROPT   =   -0.00025  -0.00025  -0.00025  -0.00025
 Ionic relaxation
   EDIFFG = 0.1E-01   stopping-criterion for IOM
   NSW    =      0    number of steps for IOM
   NBLOCK =      1;   KBLOCK =      1    inner block; outer block 
   IBRION =     -1    ionic relax: 0-MD 1-quasi-New 2-CG
   NFREE  =      0    steps in history (QN), initial steepest desc. (CG)
   ISIF   =      2    stress and relaxation
   IWAVPR =     10    prediction:  0-non 1-charg 2-wave 3-comb
   ISYM   =      2    0-nonsym 1-usesym 2-fastsym
   LCORR  =      T    Harris-Foulkes like correction to forces

   POTIM  = 0.5000    time-step for ionic-motion
   TEIN   =    0.0    initial temperature
   TEBEG  =    0.0;   TEEND  =   0.0 temperature during run
   SMASS  =  -3.00    Nose mass-parameter (am)
   estimated Nose-frequenzy (Omega)   =  0.10E-29 period in steps =****** mass=  -0.346E-27a.u.
   SCALEE = 1.0000    scale energy and forces
   NPACO  =    256;   APACO  = 16.0  distance and # of slots for P.C.
   PSTRESS=    0.0 pullay stress

  Mass of Ions in am
   POMASS = 138.90 54.94 58.69 16.00
  Ionic Valenz
   ZVAL   =  11.00  7.00 10.00  6.00
  Atomic Wigner-Seitz radii
   RWIGS  =  -1.00 -1.00 -1.00 -1.00
  virtual crystal weights 
   VCA    =   1.00  1.00  1.00  1.00
   NELECT =     222.0000    total number of electrons
   NUPDOWN=      -1.0000    fix difference up-down

 DOS related values:
   EMIN   =  10.00;   EMAX   =-10.00  energy-range for DOS
   EFERMI =   0.00
   ISMEAR =    -5;   SIGMA  =   0.05  broadening in eV -4-tet -1-fermi 0-gaus

 Electronic relaxation 2 (details)
   IALGO  =     68    algorithm
   LDIAG  =      T    sub-space diagonalisation (order eigenvalues)
   LSUBROT=      F    optimize rotation matrix (better conditioning)
   TURBO    =      0    0=normal 1=particle mesh
   IRESTART =      0    0=no restart 2=restart with 2 vectors
   NREBOOT  =      0    no. of reboots
   NMIN     =      0    reboot dimension
   EREF     =   0.00    reference energy to select bands
   IMIX   =      4    mixing-type and parameters
     AMIX     =   0.40;   BMIX     =  1.00
     AMIX_MAG =   1.60;   BMIX_MAG =  1.00
     AMIN     =   0.10
     WC   =   100.;   INIMIX=   1;  MIXPRE=   1;  MAXMIX= -45

 Intra band minimization:
   WEIMIN = 0.0000     energy-eigenvalue tresh-hold
   EBREAK =  0.17E-05  absolut break condition
   DEPER  =   0.30     relativ break condition  

   TIME   =   0.40     timestep for ELM

  volume/ion in A,a.u.               =      11.83        79.83
  Fermi-wavevector in a.u.,A,eV,Ry     =   1.400111  2.645827 26.671667  1.960312
  Thomas-Fermi vector in A             =   2.523104
 
 Write flags
   LWAVE        =      F    write WAVECAR
   LDOWNSAMPLE  =      F    k-point downsampling of WAVECAR
   LCHARG       =      T    write CHGCAR
   LVTOT        =      F    write LOCPOT, total local potential
   LVHAR        =      F    write LOCPOT, Hartree potential only
   LELF         =      F    write electronic localiz. function (ELF)
   LORBIT       =     11    0 simple, 1 ext, 2 COOP (PROOUT), +10 PAW based schemes


 Dipole corrections
   LMONO  =      F    monopole corrections only (constant potential shift)
   LDIPOL =      F    correct potential (dipole corrections)
   IDIPOL =      0    1-x, 2-y, 3-z, 4-all directions 
   EPSILON=  1.0000000 bulk dielectric constant

 LDA+U is selected, type is set to LDAUTYPE =  2
   angular momentum for each species LDAUL =     0    2    2    0
   U (eV)           for each species LDAUU =   0.0  3.9  6.2  0.0
   J (eV)           for each species LDAUJ =   0.0  0.0  0.0  0.0
 Exchange correlation treatment:
   GGA     =    --    GGA type
   LEXCH   =     8    internal setting for exchange type
   VOSKOWN=      0    Vosko Wilk Nusair interpolation
   LHFCALC =     F    Hartree Fock is set to
   LHFONE  =     F    Hartree Fock one center treatment
   AEXX    =    0.0000 exact exchange contribution

 Linear response parameters
   LEPSILON=     F    determine dielectric tensor
   LRPA    =     F    only Hartree local field effects (RPA)
   LNABLA  =     F    use nabla operator in PAW spheres
   LVEL    =     F    velocity operator in full k-point grid
   LINTERFAST=   F  fast interpolation
   KINTER  =     0    interpolate to denser k-point grid
   CSHIFT  =0.1000    complex shift for real part using Kramers Kronig
   OMEGAMAX=  -1.0    maximum frequency
   DEG_THRESHOLD= 0.2000000E-02 threshold for treating states as degnerate
   RTIME   =   -0.100 relaxation time in fs
  (WPLASMAI=    0.000 imaginary part of plasma frequency in eV, 0.658/RTIME)
   DFIELD  = 0.0000000 0.0000000 0.0000000 field for delta impulse in time
 
 Orbital magnetization related:
   ORBITALMAG=     F  switch on orbital magnetization
   LCHIMAG   =     F  perturbation theory with respect to B field
   DQ        =  0.001000  dq finite difference perturbation B field
   LLRAUG    =     F  two centre corrections for induced B field



--------------------------------------------------------------------------------------------------------


 Static calculation
 charge density and potential will be updated during run
 spin polarized calculation
 RMM-DIIS sequential band-by-band and
  variant of blocked Davidson during initial phase
 perform sub-space diagonalisation
    before iterative eigenvector-optimisation
 modified Broyden-mixing scheme, WC =      100.0
 initial mixing is a Kerker type mixing with AMIX =  0.4000 and BMIX =      1.0000
 Hartree-type preconditioning will be used
 using additional bands           33
 real space projection scheme for non local part
 use partial core corrections
 calculate Harris-corrections to forces 
   (improved forces if not selfconsistent)
 use gradient corrections 
 use of overlap-Matrix (Vanderbilt PP)
 Fermi weights with tetrahedron method with Bloechl corrections


--------------------------------------------------------------------------------------------------------


  energy-cutoff  :      520.00
  volume of cell :      354.89
      direct lattice vectors                 reciprocal lattice vectors
     3.892188398  0.000000000  0.000000000     0.256924870  0.000000000  0.000000000
     0.000000000  7.798482618  0.000000000     0.000000000  0.128230074  0.000000000
     0.000000000  0.000000000 11.691914752     0.000000000  0.000000000  0.085529190

  length of vectors
     3.892188398  7.798482618 11.691914752     0.256924870  0.128230074  0.085529190


 
 k-points in units of 2pi/SCALE and weight: Automatic mesh                          
   0.00000000  0.00000000  0.00000000       0.033
   0.05138497  0.00000000  0.00000000       0.067
   0.10276995  0.00000000  0.00000000       0.067
   0.00000000  0.04274336  0.00000000       0.067
   0.05138497  0.04274336  0.00000000       0.133
   0.10276995  0.04274336  0.00000000       0.133
   0.00000000  0.00000000  0.04276460       0.033
   0.05138497  0.00000000  0.04276460       0.067
   0.10276995  0.00000000  0.04276460       0.067
   0.00000000  0.04274336  0.04276460       0.067
   0.05138497  0.04274336  0.04276460       0.133
   0.10276995  0.04274336  0.04276460       0.133
 
 k-points in reciprocal lattice and weights: Automatic mesh                          
   0.00000000  0.00000000  0.00000000       0.033
   0.20000000  0.00000000  0.00000000       0.067
   0.40000000  0.00000000  0.00000000       0.067
   0.00000000  0.33333333  0.00000000       0.067
   0.20000000  0.33333333  0.00000000       0.133
   0.40000000  0.33333333  0.00000000       0.133
   0.00000000  0.00000000  0.50000000       0.033
   0.20000000  0.00000000  0.50000000       0.067
   0.40000000  0.00000000  0.50000000       0.067
   0.00000000  0.33333333  0.50000000       0.067
   0.20000000  0.33333333  0.50000000       0.133
   0.40000000  0.33333333  0.50000000       0.133
 
 position of ions in fractional coordinates (direct lattice) 
   0.00000000  0.49464288  0.32765941
   0.00000000  0.00535712  0.67234059
   0.00000000  0.48492625  0.00000000
   0.00000000  0.00535712  0.32765941
   0.00000000  0.49464288  0.67234059
   0.00000000  0.01507375  0.00000000
   0.50000000  0.25000000  0.50000000
   0.50000000  0.75000000  0.83422209
   0.50000000  0.75000000  0.16577791
   0.50000000  0.75000000  0.50000000
   0.50000000  0.25000000  0.83255170
   0.50000000  0.25000000  0.16744830
   0.50000000  0.75000000  0.66709329
   0.50000000  0.25000000  0.33709946
   0.50000000  0.75000000  0.00000000
   0.50000000  0.25000000  0.66290054
   0.50000000  0.75000000  0.33290671
   0.50000000  0.25000000  0.00000000
   0.50000000  0.50643884  0.83177019
   0.50000000  0.00129299  0.50000000
   0.50000000  0.50643884  0.16822981
   0.50000000  0.99356116  0.83177019
   0.50000000  0.49870701  0.50000000
   0.50000000  0.99356116  0.16822981
   0.00000000  0.75000000  0.83140030
   0.00000000  0.25000000  0.50000000
   0.00000000  0.75000000  0.16859970
   0.00000000  0.25000000  0.83114116
   0.00000000  0.75000000  0.50000000
   0.00000000  0.25000000  0.16885884
 
 position of ions in cartesian coordinates  (Angst):
   0.00000000  3.85746392  3.83096591
   0.00000000  0.04177739  7.86094884
   0.00000000  3.78168889  0.00000000
   0.00000000  0.04177739  3.83096591
   0.00000000  3.85746392  7.86094884
   0.00000000  0.11755241  0.00000000
   1.94609420  1.94962065  5.84595738
   1.94609420  5.84886196  9.75365355
   1.94609420  5.84886196  1.93826120
   1.94609420  5.84886196  5.84595738
   1.94609420  1.94962065  9.73412349
   1.94609420  1.94962065  1.95779126
   1.94609420  5.84886196  7.79959785
   1.94609420  1.94962065  3.94133820
   1.94609420  5.84886196  0.00000000
   1.94609420  1.94962065  7.75057655
   1.94609420  5.84886196  3.89231691
   1.94609420  1.94962065  0.00000000
   1.94609420  3.94945447  9.72498620
   1.94609420  0.01008337  5.84595738
   1.94609420  3.94945447  1.96692855
   1.94609420  7.74826946  9.72498620
   1.94609420  3.88915793  5.84595738
   1.94609420  7.74826946  1.96692855
   0.00000000  5.84886196  9.72066148
   0.00000000  1.94962065  5.84595738
   0.00000000  5.84886196  1.97125327
   0.00000000  1.94962065  9.71763155
   0.00000000  5.84886196  5.84595738
   0.00000000  1.94962065  1.97428320
 


--------------------------------------------------------------------------------------------------------


 k-point  1 :   0.0000 0.0000 0.0000  plane waves:    9565
 k-point  2 :   0.2000 0.0000 0.0000  plane waves:    9551
 k-point  3 :   0.4000 0.0000 0.0000  plane waves:    9574
 k-point  4 :   0.0000 0.3333 0.0000  plane waves:    9579
 k-point  5 :   0.2000 0.3333 0.0000  plane waves:    9556
 k-point  6 :   0.4000 0.3333 0.0000  plane waves:    9556
 k-point  7 :   0.0000 0.0000 0.5000  plane waves:    9608
 k-point  8 :   0.2000 0.0000 0.5000  plane waves:    9542
 k-point  9 :   0.4000 0.0000 0.5000  plane waves:    9572
 k-point 10 :   0.0000 0.3333 0.5000  plane waves:    9564
 k-point 11 :   0.2000 0.3333 0.5000  plane waves:    9548
 k-point 12 :   0.4000 0.3333 0.5000  plane waves:    9556

 maximum and minimum number of plane-waves per node :       985      930

 maximum number of plane-waves:      9608
 maximum index in each direction: 
   IXMAX=    7   IYMAX=   14   IZMAX=   21
   IXMIN=   -7   IYMIN=  -14   IZMIN=  -22


 real space projection operators:
  total allocation   :      20471.62 KBytes
  max/ min on nodes  :       2123.19       2002.12


 parallel 3D FFT for wavefunctions:
    minimum data exchange during FFTs selected (reduces bandwidth)
 parallel 3D FFT for charge:
    minimum data exchange during FFTs selected (reduces bandwidth)


 total amount of memory used by VASP MPI-rank0    75951. kBytes
=======================================================================

   base      :      30000. kBytes
   nonlr-proj:       6851. kBytes
   fftplans  :       2694. kBytes
   grid      :       7580. kBytes
   one-center:        294. kBytes
   wavefun   :      28532. kBytes
 
     INWAV:  cpu time    0.0000: real time    0.0000
 Broyden mixing: mesh for mixing (old mesh)
   NGX = 15   NGY = 29   NGZ = 43
  (NGX  = 60   NGY  =120   NGZ  =180)
  gives a total of  18705 points

 initial charge density was supplied:
 charge density of overlapping atoms calculated
 number of electron     222.0000000 magnetization      22.0000000
 keeping initial charge density in first step


--------------------------------------------------------------------------------------------------------


 Maximum index for non-local projection operator          837
 Maximum index for augmentation-charges          983 (set IRDMAX)


--------------------------------------------------------------------------------------------------------


 First call to EWALD:  gamma=   0.250
 Maximum number of real-space cells 5x 3x 2
 Maximum number of reciprocal cells 2x 3x 4

    FEWALD:  cpu time    0.0016: real time    0.0016


--------------------------------------- Iteration      1(   1)  ---------------------------------------


    POTLOK:  cpu time    0.0790: real time    0.0809
    SETDIJ:  cpu time    0.0139: real time    0.0140
atom =   1  type =  1  l = 0
 
 onsite density matrix
 
spin component  1
 
  1.0989
 
spin component  2
 
  1.0989
 
 occupancies and eigenvectors
 
  o =  1.0989  v =  1.0000  0.0000      0.0000  0.0000
  o =  1.0989  v =  0.0000  1.0000      0.0000  0.0000
atom =   2  type =  1  l = 0
 
 onsite density matrix
 
spin component  1
 
  1.0989
 
spin component  2
 
  1.0989
 
 occupancies and eigenvectors
 
  o =  1.0989  v =  1.0000  0.0000      0.0000  0.0000
  o =  1.0989  v =  0.0000  1.0000      0.0000  0.0000
atom =   3  type =  1  l = 0
 
 onsite density matrix
 
spin component  1
 
  1.0989
 
spin component  2
 
  1.0989
 
 occupancies and eigenvectors
 
  o =  1.0989  v =  1.0000  0.0000      0.0000  0.0000
  o =  1.0989  v =  0.0000  1.0000      0.0000  0.0000
atom =   4  type =  1  l = 0
 
 onsite density matrix
 
spin component  1
 
  1.0989
 
spin component  2
 
  1.0989
 
 occupancies and eigenvectors
 
  o =  1.0989  v =  1.0000  0.0000      0.0000  0.0000
  o =  1.0989  v =  0.0000  1.0000      0.0000  0.0000
atom =   5  type =  1  l = 0
 
 onsite density matrix
 
spin component  1
 
  1.0989
 
spin component  2
 
  1.0989
 
 occupancies and eigenvectors
 
  o =  1.0989  v =  1.0000  0.0000      0.0000  0.0000
  o =  1.0989  v =  0.0000  1.0000      0.0000  0.0000
atom =   6  type =  1  l = 0
 
 onsite density matrix
 
spin component  1
 
  1.0989
 
spin component  2
 
  1.0989
 
 occupancies and eigenvectors
 
  o =  1.0989  v =  1.0000  0.0000      0.0000  0.0000
  o =  1.0989  v =  0.0000  1.0000      0.0000  0.0000
atom =   7  type =  2  l = 2
 
 onsite density matrix
 
spin component  1
 
  0.8272  0.0000  0.0000  0.0000  0.0000
  0.0000  0.8272  0.0000  0.0000  0.0000
  0.0000  0.0000  0.8272  0.0000  0.0000
  0.0000  0.0000  0.0000  0.8272  0.0000
  0.0000  0.0000  0.0000  0.0000  0.8272
 
spin component  2
 
  0.2256  0.0000  0.0000  0.0000  0.0000
  0.0000  0.2256  0.0000  0.0000  0.0000
  0.0000  0.0000  0.2256  0.0000  0.0000
  0.0000  0.0000  0.0000  0.2256  0.0000
  0.0000  0.0000  0.0000  0.0000  0.2256
 
 occupancies and eigenvectors
 
  o =  0.2256  v =  0.0000  0.0000  0.0000  0.0000  0.0000  0.0000  0.0000  1.0000  0.0000  0.0000      0.0000  0.0000  0.0000  0.0000  0.0000  0.0000  0.0000  0.0000  0.0000  0.0000
  o =  0.2256  v =  0.0000  0.0000  0.0000  0.0000  0.0000  1.0000  0.0000  0.0000  0.0000  0.0000      0.0000  0.0000  0.0000  0.0000  0.0000  0.0000  0.0000  0.0000  0.0000  0.0000
  o =  0.2256  v =  0.0000  0.0000  0.0000  0.0000  0.0000  0.0000  1.0000  0.0000  0.0000  0.0000      0.0000  0.0000  0.0000  0.0000  0.0000  0.0000  0.0000  0.0000  0.0000  0.0000
  o =  0.2256  v =  0.0000  0.0000  0.0000  0.0000  0.0000  0.0000  0.0000  0.0000  1.0000  0.0000      0.0000  0.0000  0.0000  0.0000  0.0000  0.0000  0.0000  0.0000  0.0000  0.0000
  o =  0.2256  v =  0.0000  0.0000  0.0000  0.0000  0.0000  0.0000  0.0000  0.0000  0.0000  1.0000      0.0000  0.0000  0.0000  0.0000  0.0000  0.0000  0.0000  0.0000  0.0000  0.0000
  o =  0.8272  v =  0.0000  1.0000  0.0000  0.0000  0.0000  0.0000  0.0000  0.0000  0.0000  0.0000      0.0000  0.0000  0.0000  0.0000  0.0000  0.0000  0.0000  0.0000  0.0000  0.0000
  o =  0.8272  v =  0.0000  0.0000  1.0000  0.0000  0.0000  0.0000  0.0000  0.0000  0.0000  0.0000      0.0000  0.0000  0.0000  0.0000  0.0000  0.0000  0.0000  0.0000  0.0000  0.0000
  o =  0.8272  v =  1.0000  0.0000  0.0000  0.0000  0.0000  0.0000  0.0000  0.0000  0.0000  0.0000      0.0000  0.0000  0.0000  0.0000  0.0000  0.0000  0.0000  0.0000  0.0000  0.0000
  o =  0.8272  v =  0.0000  0.0000  0.0000  1.0000  0.0000  0.0000  0.0000  0.0000  0.0000  0.0000      0.0000  0.0000  0.0000  0.0000  0.0000  0.0000  0.0000  0.0000  0.0000  0.0000
  o =  0.8272  v =  0.0000  0.0000  0.0000  0.0000  1.0000  0.0000  0.0000  0.0000  0.0000  0.0000      0.0000  0.0000  0.0000  0.0000  0.0000  0.0000  0.0000  0.0000  0.0000  0.0000
atom =   8  type =  2  l = 2
 
 onsite density matrix
 
spin component  1
 
  0.8272  0.0000  0.0000  0.0000  0.0000
  0.0000  0.8272  0.0000  0.0000  0.0000
  0.0000  0.0000  0.8272  0.0000  0.0000
  0.0000  0.0000  0.0000  0.8272  0.0000
  0.0000  0.0000  0.0000  0.0000  0.8272
 
spin component  2
 
  0.2256  0.0000  0.0000  0.0000  0.0000
  0.0000  0.2256  0.0000  0.0000  0.0000
  0.0000  0.0000  0.2256  0.0000  0.0000
  0.0000  0.0000  0.0000  0.2256  0.0000
  0.0000  0.0000  0.0000  0.0000  0.2256
 
 occupancies and eigenvectors
 
  o =  0.2256  v =  0.0000  0.0000  0.0000  0.0000  0.0000  0.0000  0.0000  1.0000  0.0000  0.0000      0.0000  0.0000  0.0000  0.0000  0.0000  0.0000  0.0000  0.0000  0.0000  0.0000
  o =  0.2256  v =  0.0000  0.0000  0.0000  0.0000  0.0000  1.0000  0.0000  0.0000  0.0000  0.0000      0.0000  0.0000  0.0000  0.0000  0.0000  0.0000  0.0000  0.0000  0.0000  0.0000
  o =  0.2256  v =  0.0000  0.0000  0.0000  0.0000  0.0000  0.0000  1.0000  0.0000  0.0000  0.0000      0.0000  0.0000  0.0000  0.0000  0.0000  0.0000  0.0000  0.0000  0.0000  0.0000
  o =  0.2256  v =  0.0000  0.0000  0.0000  0.0000  0.0000  0.0000  0.0000  0.0000  1.0000  0.0000      0.0000  0.0000  0.0000  0.0000  0.0000  0.0000  0.0000  0.0000  0.0000  0.0000
  o =  0.2256  v =  0.0000  0.0000  0.0000  0.0000  0.0000  0.0000  0.0000  0.0000  0.0000  1.0000      0.0000  0.0000  0.0000  0.0000  0.0000  0.0000  0.0000  0.0000  0.0000  0.0000
  o =  0.8272  v =  0.0000  1.0000  0.0000  0.0000  0.0000  0.0000  0.0000  0.0000  0.0000  0.0000      0.0000  0.0000  0.0000  0.0000  0.0000  0.0000  0.0000  0.0000  0.0000  0.0000
  o =  0.8272  v =  0.0000  0.0000  1.0000  0.0000  0.0000  0.0000  0.0000  0.0000  0.0000  0.0000      0.0000  0.0000  0.0000  0.0000  0.0000  0.0000  0.0000  0.0000  0.0000  0.0000
  o =  0.8272  v =  1.0000  0.0000  0.0000  0.0000  0.0000  0.0000  0.0000  0.0000  0.0000  0.0000      0.0000  0.0000  0.0000  0.0000  0.0000  0.0000  0.0000  0.0000  0.0000  0.0000
  o =  0.8272  v =  0.0000  0.0000  0.0000  1.0000  0.0000  0.0000  0.0000  0.0000  0.0000  0.0000      0.0000  0.0000  0.0000  0.0000  0.0000  0.0000  0.0000  0.0000  0.0000  0.0000
  o =  0.8272  v =  0.0000  0.0000  0.0000  0.0000  1.0000  0.0000  0.0000  0.0000  0.0000  0.0000      0.0000  0.0000  0.0000  0.0000  0.0000  0.0000  0.0000  0.0000  0.0000  0.0000
atom =   9  type =  2  l = 2
 
 onsite density matrix
 
spin component  1
 
  0.8272  0.0000  0.0000  0.0000  0.0000
  0.0000  0.8272  0.0000  0.0000  0.0000
  0.0000  0.0000  0.8272  0.0000  0.0000
  0.0000  0.0000  0.0000  0.8272  0.0000
  0.0000  0.0000  0.0000  0.0000  0.8272
 
spin component  2
 
  0.2256  0.0000  0.0000  0.0000  0.0000
  0.0000  0.2256  0.0000  0.0000  0.0000
  0.0000  0.0000  0.2256  0.0000  0.0000
  0.0000  0.0000  0.0000  0.2256  0.0000
  0.0000  0.0000  0.0000  0.0000  0.2256
 
 occupancies and eigenvectors
 
  o =  0.2256  v =  0.0000  0.0000  0.0000  0.0000  0.0000  0.0000  0.0000  1.0000  0.0000  0.0000      0.0000  0.0000  0.0000  0.0000  0.0000  0.0000  0.0000  0.0000  0.0000  0.0000
  o =  0.2256  v =  0.0000  0.0000  0.0000  0.0000  0.0000  1.0000  0.0000  0.0000  0.0000  0.0000      0.0000  0.0000  0.0000  0.0000  0.0000  0.0000  0.0000  0.0000  0.0000  0.0000
  o =  0.2256  v =  0.0000  0.0000  0.0000  0.0000  0.0000  0.0000  1.0000  0.0000  0.0000  0.0000      0.0000  0.0000  0.0000  0.0000  0.0000  0.0000  0.0000  0.0000  0.0000  0.0000
  o =  0.2256  v =  0.0000  0.0000  0.0000  0.0000  0.0000  0.0000  0.0000  0.0000  1.0000  0.0000      0.0000  0.0000  0.0000  0.0000  0.0000  0.0000  0.0000  0.0000  0.0000  0.0000
  o =  0.2256  v =  0.0000  0.0000  0.0000  0.0000  0.0000  0.0000  0.0000  0.0000  0.0000  1.0000      0.0000  0.0000  0.0000  0.0000  0.0000  0.0000  0.0000  0.0000  0.0000  0.0000
  o =  0.8272  v =  0.0000  1.0000  0.0000  0.0000  0.0000  0.0000  0.0000  0.0000  0.0000  0.0000      0.0000  0.0000  0.0000  0.0000  0.0000  0.0000  0.0000  0.0000  0.0000  0.0000
  o =  0.8272  v =  0.0000  0.0000  1.0000  0.0000  0.0000  0.0000  0.0000  0.0000  0.0000  0.0000      0.0000  0.0000  0.0000  0.0000  0.0000  0.0000  0.0000  0.0000  0.0000  0.0000
  o =  0.8272  v =  1.0000  0.0000  0.0000  0.0000  0.0000  0.0000  0.0000  0.0000  0.0000  0.0000      0.0000  0.0000  0.0000  0.0000  0.0000  0.0000  0.0000  0.0000  0.0000  0.0000
  o =  0.8272  v =  0.0000  0.0000  0.0000  1.0000  0.0000  0.0000  0.0000  0.0000  0.0000  0.0000      0.0000  0.0000  0.0000  0.0000  0.0000  0.0000  0.0000  0.0000  0.0000  0.0000
  o =  0.8272  v =  0.0000  0.0000  0.0000  0.0000  1.0000  0.0000  0.0000  0.0000  0.0000  0.0000      0.0000  0.0000  0.0000  0.0000  0.0000  0.0000  0.0000  0.0000  0.0000  0.0000
atom =  10  type =  2  l = 2
 
 onsite density matrix
 
spin component  1
 
  0.8272  0.0000  0.0000  0.0000  0.0000
  0.0000  0.8272  0.0000  0.0000  0.0000
  0.0000  0.0000  0.8272  0.0000  0.0000
  0.0000  0.0000  0.0000  0.8272  0.0000
  0.0000  0.0000  0.0000  0.0000  0.8272
 
spin component  2
 
  0.2256  0.0000  0.0000  0.0000  0.0000
  0.0000  0.2256  0.0000  0.0000  0.0000
  0.0000  0.0000  0.2256  0.0000  0.0000
  0.0000  0.0000  0.0000  0.2256  0.0000
  0.0000  0.0000  0.0000  0.0000  0.2256
 
 occupancies and eigenvectors
 
  o =  0.2256  v =  0.0000  0.0000  0.0000  0.0000  0.0000  0.0000  0.0000  1.0000  0.0000  0.0000      0.0000  0.0000  0.0000  0.0000  0.0000  0.0000  0.0000  0.0000  0.0000  0.0000
  o =  0.2256  v =  0.0000  0.0000  0.0000  0.0000  0.0000  1.0000  0.0000  0.0000  0.0000  0.0000      0.0000  0.0000  0.0000  0.0000  0.0000  0.0000  0.0000  0.0000  0.0000  0.0000
  o =  0.2256  v =  0.0000  0.0000  0.0000  0.0000  0.0000  0.0000  1.0000  0.0000  0.0000  0.0000      0.0000  0.0000  0.0000  0.0000  0.0000  0.0000  0.0000  0.0000  0.0000  0.0000
  o =  0.2256  v =  0.0000  0.0000  0.0000  0.0000  0.0000  0.0000  0.0000  0.0000  1.0000  0.0000      0.0000  0.0000  0.0000  0.0000  0.0000  0.0000  0.0000  0.0000  0.0000  0.0000
  o =  0.2256  v =  0.0000  0.0000  0.0000  0.0000  0.0000  0.0000  0.0000  0.0000  0.0000  1.0000      0.0000  0.0000  0.0000  0.0000  0.0000  0.0000  0.0000  0.0000  0.0000  0.0000
  o =  0.8272  v =  0.0000  1.0000  0.0000  0.0000  0.0000  0.0000  0.0000  0.0000  0.0000  0.0000      0.0000  0.0000  0.0000  0.0000  0.0000  0.0000  0.0000  0.0000  0.0000  0.0000
  o =  0.8272  v =  0.0000  0.0000  1.0000  0.0000  0.0000  0.0000  0.0000  0.0000  0.0000  0.0000      0.0000  0.0000  0.0000  0.0000  0.0000  0.0000  0.0000  0.0000  0.0000  0.0000
  o =  0.8272  v =  1.0000  0.0000  0.0000  0.0000  0.0000  0.0000  0.0000  0.0000  0.0000  0.0000      0.0000  0.0000  0.0000  0.0000  0.0000  0.0000  0.0000  0.0000  0.0000  0.0000
  o =  0.8272  v =  0.0000  0.0000  0.0000  1.0000  0.0000  0.0000  0.0000  0.0000  0.0000  0.0000      0.0000  0.0000  0.0000  0.0000  0.0000  0.0000  0.0000  0.0000  0.0000  0.0000
  o =  0.8272  v =  0.0000  0.0000  0.0000  0.0000  1.0000  0.0000  0.0000  0.0000  0.0000  0.0000      0.0000  0.0000  0.0000  0.0000  0.0000  0.0000  0.0000  0.0000  0.0000  0.0000
atom =  11  type =  3  l = 2
 
 onsite density matrix
 
spin component  1
 
  1.1008  0.0000  0.0000  0.0000  0.0000
  0.0000  1.1008  0.0000  0.0000  0.0000
  0.0000  0.0000  1.1008  0.0000  0.0000
  0.0000  0.0000  0.0000  1.1008  0.0000
  0.0000  0.0000  0.0000  0.0000  1.1008
 
spin component  2
 
  0.5927  0.0000  0.0000  0.0000  0.0000
  0.0000  0.5927  0.0000  0.0000  0.0000
  0.0000  0.0000  0.5927  0.0000  0.0000
  0.0000  0.0000  0.0000  0.5927  0.0000
  0.0000  0.0000  0.0000  0.0000  0.5927
 
 occupancies and eigenvectors
 
  o =  0.5927  v =  0.0000  0.0000  0.0000  0.0000  0.0000  1.0000  0.0000  0.0000  0.0000  0.0000      0.0000  0.0000  0.0000  0.0000  0.0000  0.0000  0.0000  0.0000  0.0000  0.0000
  o =  0.5927  v =  0.0000  0.0000  0.0000  0.0000  0.0000  0.0000  1.0000  0.0000  0.0000  0.0000      0.0000  0.0000  0.0000  0.0000  0.0000  0.0000  0.0000  0.0000  0.0000  0.0000
  o =  0.5927  v =  0.0000  0.0000  0.0000  0.0000  0.0000  0.0000  0.0000  1.0000  0.0000  0.0000      0.0000  0.0000  0.0000  0.0000  0.0000  0.0000  0.0000  0.0000  0.0000  0.0000
  o =  0.5927  v =  0.0000  0.0000  0.0000  0.0000  0.0000  0.0000  0.0000  0.0000  1.0000  0.0000      0.0000  0.0000  0.0000  0.0000  0.0000  0.0000  0.0000  0.0000  0.0000  0.0000
  o =  0.5927  v =  0.0000  0.0000  0.0000  0.0000  0.0000  0.0000  0.0000  0.0000  0.0000  1.0000      0.0000  0.0000  0.0000  0.0000  0.0000  0.0000  0.0000  0.0000  0.0000  0.0000
  o =  1.1008  v =  1.0000  0.0000  0.0000  0.0000  0.0000  0.0000  0.0000  0.0000  0.0000  0.0000      0.0000  0.0000  0.0000  0.0000  0.0000  0.0000  0.0000  0.0000  0.0000  0.0000
  o =  1.1008  v =  0.0000  1.0000  0.0000  0.0000  0.0000  0.0000  0.0000  0.0000  0.0000  0.0000      0.0000  0.0000  0.0000  0.0000  0.0000  0.0000  0.0000  0.0000  0.0000  0.0000
  o =  1.1008  v =  0.0000  0.0000  1.0000  0.0000  0.0000  0.0000  0.0000  0.0000  0.0000  0.0000      0.0000  0.0000  0.0000  0.0000  0.0000  0.0000  0.0000  0.0000  0.0000  0.0000
  o =  1.1008  v =  0.0000  0.0000  0.0000  1.0000  0.0000  0.0000  0.0000  0.0000  0.0000  0.0000      0.0000  0.0000  0.0000  0.0000  0.0000  0.0000  0.0000  0.0000  0.0000  0.0000
  o =  1.1008  v =  0.0000  0.0000  0.0000  0.0000  1.0000  0.0000  0.0000  0.0000  0.0000  0.0000      0.0000  0.0000  0.0000  0.0000  0.0000  0.0000  0.0000  0.0000  0.0000  0.0000
atom =  12  type =  3  l = 2
 
 onsite density matrix
 
spin component  1
 
  1.1008  0.0000  0.0000  0.0000  0.0000
  0.0000  1.1008  0.0000  0.0000  0.0000
  0.0000  0.0000  1.1008  0.0000  0.0000
  0.0000  0.0000  0.0000  1.1008  0.0000
  0.0000  0.0000  0.0000  0.0000  1.1008
 
spin component  2
 
  0.5927  0.0000  0.0000  0.0000  0.0000
  0.0000  0.5927  0.0000  0.0000  0.0000
  0.0000  0.0000  0.5927  0.0000  0.0000
  0.0000  0.0000  0.0000  0.5927  0.0000
  0.0000  0.0000  0.0000  0.0000  0.5927
 
 occupancies and eigenvectors
 
  o =  0.5927  v =  0.0000  0.0000  0.0000  0.0000  0.0000  1.0000  0.0000  0.0000  0.0000  0.0000      0.0000  0.0000  0.0000  0.0000  0.0000  0.0000  0.0000  0.0000  0.0000  0.0000
  o =  0.5927  v =  0.0000  0.0000  0.0000  0.0000  0.0000  0.0000  1.0000  0.0000  0.0000  0.0000      0.0000  0.0000  0.0000  0.0000  0.0000  0.0000  0.0000  0.0000  0.0000  0.0000
  o =  0.5927  v =  0.0000  0.0000  0.0000  0.0000  0.0000  0.0000  0.0000  1.0000  0.0000  0.0000      0.0000  0.0000  0.0000  0.0000  0.0000  0.0000  0.0000  0.0000  0.0000  0.0000
  o =  0.5927  v =  0.0000  0.0000  0.0000  0.0000  0.0000  0.0000  0.0000  0.0000  1.0000  0.0000      0.0000  0.0000  0.0000  0.0000  0.0000  0.0000  0.0000  0.0000  0.0000  0.0000
  o =  0.5927  v =  0.0000  0.0000  0.0000  0.0000  0.0000  0.0000  0.0000  0.0000  0.0000  1.0000      0.0000  0.0000  0.0000  0.0000  0.0000  0.0000  0.0000  0.0000  0.0000  0.0000
  o =  1.1008  v =  1.0000  0.0000  0.0000  0.0000  0.0000  0.0000  0.0000  0.0000  0.0000  0.0000      0.0000  0.0000  0.0000  0.0000  0.0000  0.0000  0.0000  0.0000  0.0000  0.0000
  o =  1.1008  v =  0.0000  1.0000  0.0000  0.0000  0.0000  0.0000  0.0000  0.0000  0.0000  0.0000      0.0000  0.0000  0.0000  0.0000  0.0000  0.0000  0.0000  0.0000  0.0000  0.0000
  o =  1.1008  v =  0.0000  0.0000  1.0000  0.0000  0.0000  0.0000  0.0000  0.0000  0.0000  0.0000      0.0000  0.0000  0.0000  0.0000  0.0000  0.0000  0.0000  0.0000  0.0000  0.0000
  o =  1.1008  v =  0.0000  0.0000  0.0000  1.0000  0.0000  0.0000  0.0000  0.0000  0.0000  0.0000      0.0000  0.0000  0.0000  0.0000  0.0000  0.0000  0.0000  0.0000  0.0000  0.0000
  o =  1.1008  v =  0.0000  0.0000  0.0000  0.0000  1.0000  0.0000  0.0000  0.0000  0.0000  0.0000      0.0000  0.0000  0.0000  0.0000  0.0000  0.0000  0.0000  0.0000  0.0000  0.0000
atom =  13  type =  4  l = 0
 
 onsite density matrix
 
spin component  1
 
  0.8190
 
spin component  2
 
  0.8190
 
 occupancies and eigenvectors
 
  o =  0.8190  v =  1.0000  0.0000      0.0000  0.0000
  o =  0.8190  v =  0.0000  1.0000      0.0000  0.0000
atom =  14  type =  4  l = 0
 
 onsite density matrix
 
spin component  1
 
  0.8190
 
spin component  2
 
  0.8190
 
 occupancies and eigenvectors
 
  o =  0.8190  v =  1.0000  0.0000      0.0000  0.0000
  o =  0.8190  v =  0.0000  1.0000      0.0000  0.0000
atom =  15  type =  4  l = 0
 
 onsite density matrix
 
spin component  1
 
  0.8190
 
spin component  2
 
  0.8190
 
 occupancies and eigenvectors
 
  o =  0.8190  v =  1.0000  0.0000      0.0000  0.0000
  o =  0.8190  v =  0.0000  1.0000      0.0000  0.0000
atom =  16  type =  4  l = 0
 
 onsite density matrix
 
spin component  1
 
  0.8190
 
spin component  2
 
  0.8190
 
 occupancies and eigenvectors
 
  o =  0.8190  v =  1.0000  0.0000      0.0000  0.0000
  o =  0.8190  v =  0.0000  1.0000      0.0000  0.0000
atom =  17  type =  4  l = 0
 
 onsite density matrix
 
spin component  1
 
  0.8190
 
spin component  2
 
  0.8190
 
 occupancies and eigenvectors
 
  o =  0.8190  v =  1.0000  0.0000      0.0000  0.0000
  o =  0.8190  v =  0.0000  1.0000      0.0000  0.0000
atom =  18  type =  4  l = 0
 
 onsite density matrix
 
spin component  1
 
  0.8190
 
spin component  2
 
  0.8190
 
 occupancies and eigenvectors
 
  o =  0.8190  v =  1.0000  0.0000      0.0000  0.0000
  o =  0.8190  v =  0.0000  1.0000      0.0000  0.0000
atom =  19  type =  4  l = 0
 
 onsite density matrix
 
spin component  1
 
  0.8190
 
spin component  2
 
  0.8190
 
 occupancies and eigenvectors
 
  o =  0.8190  v =  1.0000  0.0000      0.0000  0.0000
  o =  0.8190  v =  0.0000  1.0000      0.0000  0.0000
atom =  20  type =  4  l = 0
 
 onsite density matrix
 
spin component  1
 
  0.8190
 
spin component  2
 
  0.8190
 
 occupancies and eigenvectors
 
  o =  0.8190  v =  1.0000  0.0000      0.0000  0.0000
  o =  0.8190  v =  0.0000  1.0000      0.0000  0.0000
atom =  21  type =  4  l = 0
 
 onsite density matrix
 
spin component  1
 
  0.8190
 
spin component  2
 
  0.8190
 
 occupancies and eigenvectors
 
  o =  0.8190  v =  1.0000  0.0000      0.0000  0.0000
  o =  0.8190  v =  0.0000  1.0000      0.0000  0.0000
atom =  22  type =  4  l = 0
 
 onsite density matrix
 
spin component  1
 
  0.8190
 
spin component  2
 
  0.8190
 
 occupancies and eigenvectors
 
  o =  0.8190  v =  1.0000  0.0000      0.0000  0.0000
  o =  0.8190  v =  0.0000  1.0000      0.0000  0.0000
atom =  23  type =  4  l = 0
 
 onsite density matrix
 
spin component  1
 
  0.8190
 
spin component  2
 
  0.8190
 
 occupancies and eigenvectors
 
  o =  0.8190  v =  1.0000  0.0000      0.0000  0.0000
  o =  0.8190  v =  0.0000  1.0000      0.0000  0.0000
atom =  24  type =  4  l = 0
 
 onsite density matrix
 
spin component  1
 
  0.8190
 
spin component  2
 
  0.8190
 
 occupancies and eigenvectors
 
  o =  0.8190  v =  1.0000  0.0000      0.0000  0.0000
  o =  0.8190  v =  0.0000  1.0000      0.0000  0.0000
atom =  25  type =  4  l = 0
 
 onsite density matrix
 
spin component  1
 
  0.8190
 
spin component  2
 
  0.8190
 
 occupancies and eigenvectors
 
  o =  0.8190  v =  1.0000  0.0000      0.0000  0.0000
  o =  0.8190  v =  0.0000  1.0000      0.0000  0.0000
atom =  26  type =  4  l = 0
 
 onsite density matrix
 
spin component  1
 
  0.8190
 
spin component  2
 
  0.8190
 
 occupancies and eigenvectors
 
  o =  0.8190  v =  1.0000  0.0000      0.0000  0.0000
  o =  0.8190  v =  0.0000  1.0000      0.0000  0.0000
atom =  27  type =  4  l = 0
 
 onsite density matrix
 
spin component  1
 
  0.8190
 
spin component  2
 
  0.8190
 
 occupancies and eigenvectors
 
  o =  0.8190  v =  1.0000  0.0000      0.0000  0.0000
  o =  0.8190  v =  0.0000  1.0000      0.0000  0.0000
atom =  28  type =  4  l = 0
 
 onsite density matrix
 
spin component  1
 
  0.8190
 
spin component  2
 
  0.8190
 
 occupancies and eigenvectors
 
  o =  0.8190  v =  1.0000  0.0000      0.0000  0.0000
  o =  0.8190  v =  0.0000  1.0000      0.0000  0.0000
atom =  29  type =  4  l = 0
 
 onsite density matrix
 
spin component  1
 
  0.8190
 
spin component  2
 
  0.8190
 
 occupancies and eigenvectors
 
  o =  0.8190  v =  1.0000  0.0000      0.0000  0.0000
  o =  0.8190  v =  0.0000  1.0000      0.0000  0.0000
atom =  30  type =  4  l = 0
 
 onsite density matrix
 
spin component  1
 
  0.8190
 
spin component  2
 
  0.8190
 
 occupancies and eigenvectors
 
  o =  0.8190  v =  1.0000  0.0000      0.0000  0.0000
  o =  0.8190  v =  0.0000  1.0000      0.0000  0.0000
     EDDAV:  cpu time    4.3964: real time    4.4124
 BZINTS: Fermi energy: 31.653731;222.000000 electrons
         Band energy:3337.821901;  BLOECHL correction: -0.161452
       DOS:  cpu time    0.0363: real time    0.0365
    --------------------------------------------
      LOOP:  cpu time    4.5256: real time    4.5438

 eigenvalue-minimisations  :  7424
 total energy-change (2. order) : 0.3581370E+04  (-0.7731655E+04)
 number of electron     222.0000000 magnetization      22.0000000
 augmentation part      222.0000000 magnetization      22.0000000

 Free energy of the ion-electron system (eV)
  ---------------------------------------------------
  alpha Z        PSCENC =       977.53324079
  Ewald energy   TEWEN  =    -15026.39364482
  -Hartree energ DENC   =     -3193.72187843
  -exchange      EXHF   =         0.00000000
  -V(xc)+E(xc)   XCENC  =       710.85750399
  PAW double counting   =     13644.53670636   -13669.90867429
  entropy T*S    EENTRO =         0.00000000
  eigenvalues    EBANDS =      3337.82190085
  atomic energy  EATOM  =     16800.64461370
  Solvation  Ediel_sol  =         0.00000000
  ---------------------------------------------------
  free energy    TOTEN  =      3581.36976815 eV

  energy without entropy =     3581.36976815  energy(sigma->0) =     3581.36976815


--------------------------------------------------------------------------------------------------------




--------------------------------------- Iteration      1(   2)  ---------------------------------------


     EDDAV:  cpu time    4.4396: real time    4.4558
 BZINTS: Fermi energy: 16.496408;222.000000 electrons
         Band energy:1007.852319;  BLOECHL correction: -0.031357
       DOS:  cpu time    0.0385: real time    0.0386
    --------------------------------------------
      LOOP:  cpu time    4.4781: real time    4.4944

 eigenvalue-minimisations  :  7664
 total energy-change (2. order) :-0.2329970E+04  (-0.2095653E+04)
 number of electron     222.0000000 magnetization      22.0000000
 augmentation part      222.0000000 magnetization      22.0000000

 Free energy of the ion-electron system (eV)
  ---------------------------------------------------
  alpha Z        PSCENC =       977.53324079
  Ewald energy   TEWEN  =    -15026.39364482
  -Hartree energ DENC   =     -3193.72187843
  -exchange      EXHF   =         0.00000000
  -V(xc)+E(xc)   XCENC  =       710.85750399
  PAW double counting   =     13644.53670636   -13669.90867429
  entropy T*S    EENTRO =         0.00000000
  eigenvalues    EBANDS =      1007.85231850
  atomic energy  EATOM  =     16800.64461370
  Solvation  Ediel_sol  =         0.00000000
  ---------------------------------------------------
  free energy    TOTEN  =      1251.40018580 eV

  energy without entropy =     1251.40018580  energy(sigma->0) =     1251.40018580


--------------------------------------------------------------------------------------------------------




--------------------------------------- Iteration      1(   3)  ---------------------------------------


     EDDAV:  cpu time    4.7230: real time    4.7413
 BZINTS: Fermi energy: 12.151622;222.000000 electrons
         Band energy:  25.372567;  BLOECHL correction: -0.032879
       DOS:  cpu time    0.0378: real time    0.0379
    --------------------------------------------
      LOOP:  cpu time    4.7608: real time    4.7792

 eigenvalue-minimisations  :  8016
 total energy-change (2. order) :-0.9824798E+03  (-0.8859947E+03)
 number of electron     222.0000000 magnetization      22.0000000
 augmentation part      222.0000000 magnetization      22.0000000

 Free energy of the ion-electron system (eV)
  ---------------------------------------------------
  alpha Z        PSCENC =       977.53324079
  Ewald energy   TEWEN  =    -15026.39364482
  -Hartree energ DENC   =     -3193.72187843
  -exchange      EXHF   =         0.00000000
  -V(xc)+E(xc)   XCENC  =       710.85750399
  PAW double counting   =     13644.53670636   -13669.90867429
  entropy T*S    EENTRO =         0.00000000
  eigenvalues    EBANDS =        25.37256740
  atomic energy  EATOM  =     16800.64461370
  Solvation  Ediel_sol  =         0.00000000
  ---------------------------------------------------
  free energy    TOTEN  =       268.92043470 eV

  energy without entropy =      268.92043470  energy(sigma->0) =      268.92043470


--------------------------------------------------------------------------------------------------------




--------------------------------------- Iteration      1(   4)  ---------------------------------------


     EDDAV:  cpu time    6.1040: real time    6.1265
 BZINTS: Fermi energy: 11.382808;222.000000 electrons
         Band energy:-404.268622;  BLOECHL correction: -0.008811
       DOS:  cpu time    0.0392: real time    0.0392
    --------------------------------------------
      LOOP:  cpu time    6.1432: real time    6.1657

 eigenvalue-minimisations  : 11112
 total energy-change (2. order) :-0.4296412E+03  (-0.4047453E+03)
 number of electron     222.0000000 magnetization      22.0000000
 augmentation part      222.0000000 magnetization      22.0000000

 Free energy of the ion-electron system (eV)
  ---------------------------------------------------
  alpha Z        PSCENC =       977.53324079
  Ewald energy   TEWEN  =    -15026.39364482
  -Hartree energ DENC   =     -3193.72187843
  -exchange      EXHF   =         0.00000000
  -V(xc)+E(xc)   XCENC  =       710.85750399
  PAW double counting   =     13644.53670636   -13669.90867429
  entropy T*S    EENTRO =         0.00000000
  eigenvalues    EBANDS =      -404.26862175
  atomic energy  EATOM  =     16800.64461370
  Solvation  Ediel_sol  =         0.00000000
  ---------------------------------------------------
  free energy    TOTEN  =      -160.72075445 eV

  energy without entropy =     -160.72075445  energy(sigma->0) =     -160.72075445


--------------------------------------------------------------------------------------------------------




--------------------------------------- Iteration      1(   5)  ---------------------------------------


     EDDAV:  cpu time    6.7469: real time    6.7674
 BZINTS: Fermi energy: 10.971797;222.000000 electrons
         Band energy:-498.503435;  BLOECHL correction: -0.085704
       DOS:  cpu time    0.0373: real time    0.0374
    CHARGE:  cpu time    0.1966: real time    0.1975
    MIXING:  cpu time    0.0032: real time    0.0033
    --------------------------------------------
      LOOP:  cpu time    6.9840: real time    7.0055

 eigenvalue-minimisations  : 12552
 total energy-change (2. order) :-0.9423481E+02  (-0.9056673E+02)
 number of electron     222.0000094 magnetization      20.3712633
 augmentation part       26.1500021 magnetization      14.4912885

 Broyden mixing:
  rms(total) = 0.72127E+01    rms(broyden)= 0.72119E+01
  rms(prec ) = 0.80579E+01
  weight for this iteration     100.00

 Free energy of the ion-electron system (eV)
  ---------------------------------------------------
  alpha Z        PSCENC =       977.53324079
  Ewald energy   TEWEN  =    -15026.39364482
  -Hartree energ DENC   =     -3193.72187843
  -exchange      EXHF   =         0.00000000
  -V(xc)+E(xc)   XCENC  =       710.85750399
  PAW double counting   =     13644.53670636   -13669.90867429
  entropy T*S    EENTRO =         0.00000000
  eigenvalues    EBANDS =      -498.50343503
  atomic energy  EATOM  =     16800.64461370
  Solvation  Ediel_sol  =         0.00000000
  ---------------------------------------------------
  free energy    TOTEN  =      -254.95556773 eV

  energy without entropy =     -254.95556773  energy(sigma->0) =     -254.95556773


--------------------------------------------------------------------------------------------------------




--------------------------------------- Iteration      1(   6)  ---------------------------------------


    POTLOK:  cpu time    0.0733: real time    0.0746
    SETDIJ:  cpu time    0.0137: real time    0.0138
atom =   1  type =  1  l = 0
 
 onsite density matrix
 
spin component  1
 
  1.0564
 
spin component  2
 
  1.0559
 
 occupancies and eigenvectors
 
  o =  1.0559  v =  0.0000  1.0000      0.0000  0.0000
  o =  1.0564  v =  1.0000  0.0000      0.0000  0.0000
atom =   2  type =  1  l = 0
 
 onsite density matrix
 
spin component  1
 
  1.0564
 
spin component  2
 
  1.0559
 
 occupancies and eigenvectors
 
  o =  1.0559  v =  0.0000  1.0000      0.0000  0.0000
  o =  1.0564  v =  1.0000  0.0000      0.0000  0.0000
atom =   3  type =  1  l = 0
 
 onsite density matrix
 
spin component  1
 
  1.0568
 
spin component  2
 
  1.0567
 
 occupancies and eigenvectors
 
  o =  1.0567  v =  0.0000  1.0000      0.0000  0.0000
  o =  1.0568  v =  1.0000  0.0000      0.0000  0.0000
atom =   4  type =  1  l = 0
 
 onsite density matrix
 
spin component  1
 
  1.0564
 
spin component  2
 
  1.0559
 
 occupancies and eigenvectors
 
  o =  1.0559  v =  0.0000  1.0000      0.0000  0.0000
  o =  1.0564  v =  1.0000  0.0000      0.0000  0.0000
atom =   5  type =  1  l = 0
 
 onsite density matrix
 
spin component  1
 
  1.0564
 
spin component  2
 
  1.0559
 
 occupancies and eigenvectors
 
  o =  1.0559  v =  0.0000  1.0000      0.0000  0.0000
  o =  1.0564  v =  1.0000  0.0000      0.0000  0.0000
atom =   6  type =  1  l = 0
 
 onsite density matrix
 
spin component  1
 
  1.0568
 
spin component  2
 
  1.0567
 
 occupancies and eigenvectors
 
  o =  1.0567  v =  0.0000  1.0000      0.0000  0.0000
  o =  1.0568  v =  1.0000  0.0000      0.0000  0.0000
atom =   7  type =  2  l = 2
 
 onsite density matrix
 
spin component  1
 
  0.9405  0.0000  0.0000  0.0000  0.0000
  0.0000  0.9385  0.0000  0.0000  0.0000
  0.0000  0.0000  0.3729  0.0000 -0.0107
  0.0000  0.0000  0.0000  0.9328  0.0000
  0.0000  0.0000 -0.0107  0.0000  0.4498
 
spin component  2
 
  0.0360  0.0000  0.0000  0.0000  0.0000
  0.0000  0.0426  0.0000  0.0000  0.0000
  0.0000  0.0000  0.4364  0.0000  0.0074
  0.0000  0.0000  0.0000  0.0456  0.0000
  0.0000  0.0000  0.0074  0.0000  0.3848
 
 occupancies and eigenvectors
 
  o =  0.0360  v =  0.0000  0.0000  0.0000  0.0000  0.0000  1.0000  0.0000  0.0000  0.0000  0.0000      0.0000  0.0000  0.0000  0.0000  0.0000  0.0000  0.0000  0.0000  0.0000  0.0000
  o =  0.0426  v =  0.0000  0.0000  0.0000  0.0000  0.0000  0.0000  1.0000  0.0000  0.0000  0.0000      0.0000  0.0000  0.0000  0.0000  0.0000  0.0000  0.0000  0.0000  0.0000  0.0000
  o =  0.0456  v =  0.0000  0.0000  0.0000  0.0000  0.0000  0.0000  0.0000  0.0000 -1.0000  0.0000      0.0000  0.0000  0.0000  0.0000  0.0000  0.0000  0.0000  0.0000  0.0000  0.0000
  o =  0.3715  v =  0.0000  0.0000 -0.9907  0.0000 -0.1357  0.0000  0.0000  0.0000  0.0000  0.0000      0.0000  0.0000  0.0000  0.0000  0.0000  0.0000  0.0000  0.0000  0.0000  0.0000
  o =  0.3837  v =  0.0000  0.0000  0.0000  0.0000  0.0000  0.0000  0.0000 -0.1398  0.0000  0.9902      0.0000  0.0000  0.0000  0.0000  0.0000  0.0000  0.0000  0.0000  0.0000  0.0000
  o =  0.4375  v =  0.0000  0.0000  0.0000  0.0000  0.0000  0.0000  0.0000 -0.9902  0.0000 -0.1398      0.0000  0.0000  0.0000  0.0000  0.0000  0.0000  0.0000  0.0000  0.0000  0.0000
  o =  0.4513  v =  0.0000  0.0000 -0.1357  0.0000  0.9907  0.0000  0.0000  0.0000  0.0000  0.0000      0.0000  0.0000  0.0000  0.0000  0.0000  0.0000  0.0000  0.0000  0.0000  0.0000
  o =  0.9328  v =  0.0000  0.0000  0.0000  1.0000  0.0000  0.0000  0.0000  0.0000  0.0000  0.0000      0.0000  0.0000  0.0000  0.0000  0.0000  0.0000  0.0000  0.0000  0.0000  0.0000
  o =  0.9385  v =  0.0000  1.0000  0.0000  0.0000  0.0000  0.0000  0.0000  0.0000  0.0000  0.0000      0.0000  0.0000  0.0000  0.0000  0.0000  0.0000  0.0000  0.0000  0.0000  0.0000
  o =  0.9405  v =  1.0000  0.0000  0.0000  0.0000  0.0000  0.0000  0.0000  0.0000  0.0000  0.0000      0.0000  0.0000  0.0000  0.0000  0.0000  0.0000  0.0000  0.0000  0.0000  0.0000
atom =   8  type =  2  l = 2
 
 onsite density matrix
 
spin component  1
 
  0.9459 -0.0000  0.0000 -0.0000  0.0000
 -0.0000  0.9416  0.0000 -0.0000  0.0000
  0.0000  0.0000  0.4254 -0.0000 -0.0327
 -0.0000 -0.0000 -0.0000  0.9469 -0.0000
  0.0000  0.0000 -0.0327 -0.0000  0.3839
 
spin component  2
 
  0.0375 -0.0000 -0.0000  0.0000  0.0000
 -0.0000  0.0407 -0.0000  0.0000 -0.0000
 -0.0000 -0.0000  0.4002 -0.0000  0.0229
  0.0000  0.0000 -0.0000  0.0314 -0.0000
  0.0000 -0.0000  0.0229 -0.0000  0.4288
 
 occupancies and eigenvectors
 
  o =  0.0314  v =  0.0000  0.0000  0.0000  0.0000  0.0000  0.0000  0.0000  0.0000 -1.0000  0.0000      0.0000  0.0000  0.0000  0.0000  0.0000  0.0000  0.0000  0.0000  0.0000  0.0000
[...]
 -0.000  -0.001  -0.000  -0.000   0.000   0.000  -0.001   0.000   0.000  -0.001  -0.001  -0.000  -0.000  -0.000   0.000   0.000
  0.000   0.000   0.000   0.000   0.000  -0.000   0.000   0.000   0.001  -0.000  -0.000   0.000  -0.000  -0.000   0.000   0.000
  0.000   0.001  -0.000  -0.000  -0.000  -0.000  -0.000  -0.000  -0.000   0.001   0.000   0.000  -0.002   0.000  -0.000  -0.000
  0.000   0.000   0.000   0.000  -0.000   0.000   0.000  -0.001  -0.000   0.000  -0.000  -0.001   0.000  -0.000   0.000   0.000
 -0.000  -0.002   0.000  -0.000  -0.000  -0.001   0.000   0.000   0.000  -0.003  -0.002  -0.000   0.003   0.000   0.001   0.000
  0.000   0.000   0.000   0.000  -0.001   0.000   0.000   0.001  -0.003   0.000   0.000  -0.003  -0.000   0.001  -0.000   0.000
 -0.000   0.000   0.000  -0.000   0.000  -0.001  -0.000   0.000   0.000   0.000   0.003   0.000  -0.001   0.000  -0.000  -0.001
 -0.000   0.001   0.000  -0.000   0.000  -0.000   0.001  -0.000  -0.000   0.003   0.002  -0.000   0.000  -0.000  -0.001  -0.000
 -0.000   0.000   0.000  -0.000   0.000   0.000  -0.000  -0.001  -0.002   0.000   0.000  -0.001   0.000   0.001   0.000  -0.000
 -0.000  -0.001   0.000  -0.000  -0.000   0.000   0.000   0.000   0.000  -0.002  -0.000   0.000   0.004   0.000   0.001   0.000
  0.000  -0.000   0.000   0.000  -0.000   0.000   0.000   0.001   0.001  -0.000   0.000   0.002   0.000  -0.000  -0.000   0.000


------------------------ aborting loop because EDIFF is reached ----------------------------------------


 


 total charge     
 
# of ion       s       p       d       f       tot
--------------------------------------------------
    1        2.000   5.698   0.489   0.190   8.376
    2        2.000   5.698   0.489   0.190   8.376
    3        1.999   5.695   0.484   0.186   8.365
    4        2.000   5.698   0.489   0.190   8.376
    5        2.000   5.698   0.489   0.190   8.376
    6        2.000   5.695   0.484   0.186   8.366
    7        0.336   0.522   4.879   0.000   5.737
    8        0.336   0.522   4.871   0.000   5.729
    9        0.336   0.522   4.871   0.000   5.729
   10        0.316   0.474   4.879   0.000   5.669
   11        0.398   0.577   8.338   0.000   9.313
   12        0.398   0.577   8.338   0.000   9.313
   13        1.564   3.455   0.000   0.000   5.019
   14        1.561   3.462   0.000   0.000   5.023
   15        1.564   3.454   0.000   0.000   5.017
   16        1.561   3.462   0.000   0.000   5.023
   17        1.564   3.455   0.000   0.000   5.019
   18        1.555   3.462   0.000   0.000   5.017
   19        1.561   3.460   0.000   0.000   5.021
   20        1.564   3.455   0.000   0.000   5.020
   21        1.561   3.460   0.000   0.000   5.021
   22        1.561   3.460   0.000   0.000   5.021
   23        1.564   3.455   0.000   0.000   5.020
   24        1.561   3.460   0.000   0.000   5.021
   25        1.565   3.457   0.000   0.000   5.022
   26        1.565   3.461   0.000   0.000   5.025
   27        1.565   3.457   0.000   0.000   5.022
   28        1.555   3.464   0.000   0.000   5.019
   29        1.564   3.451   0.000   0.000   5.015
   30        1.555   3.464   0.000   0.000   5.019
--------------------------------------------------
tot         42.229  99.629  39.101   1.132 182.091

 


 magnetization (x)
 
# of ion       s       p       d       f       tot
--------------------------------------------------
    1        0.001   0.001   0.010   0.005   0.017
    2        0.001   0.001   0.010   0.005   0.017
    3        0.000   0.000   0.005   0.003   0.009
    4        0.001   0.001   0.010   0.005   0.017
    5        0.001   0.001   0.010   0.005   0.017
    6        0.000   0.000   0.005   0.003   0.009
    7        0.024   0.027   3.531   0.000   3.582
    8        0.024   0.028   3.510   0.000   3.561
    9        0.024   0.028   3.510   0.000   3.562
   10        0.023   0.019   3.716   0.000   3.758
   11        0.013   0.008   1.689   0.000   1.709
   12        0.013   0.008   1.689   0.000   1.709
   13        0.005  -0.050   0.000   0.000  -0.045
   14        0.005  -0.017   0.000   0.000  -0.012
   15        0.005  -0.032   0.000   0.000  -0.027
   16        0.005  -0.017   0.000   0.000  -0.012
   17        0.005  -0.050   0.000   0.000  -0.045
   18        0.007   0.034   0.000   0.000   0.041
   19        0.005  -0.009   0.000   0.000  -0.004
   20        0.005  -0.042   0.000   0.000  -0.037
   21        0.005  -0.009   0.000   0.000  -0.003
   22        0.005  -0.009   0.000   0.000  -0.003
   23        0.005  -0.042   0.000   0.000  -0.037
   24        0.005  -0.009   0.000   0.000  -0.003
   25        0.005  -0.046   0.000   0.000  -0.041
   26        0.005  -0.044   0.000   0.000  -0.040
   27        0.005  -0.046   0.000   0.000  -0.041
   28        0.006   0.020   0.000   0.000   0.027
   29        0.004  -0.050   0.000   0.000  -0.046
   30        0.006   0.020   0.000   0.000   0.027
--------------------------------------------------
tot          0.216  -0.276  17.695   0.027  17.663

 
    CHARGE:  cpu time    0.1726: real time    0.1730
    FORLOC:  cpu time    0.0114: real time    0.0114
    FORNL :  cpu time    1.0975: real time    1.1008
    STRESS:  cpu time    3.2905: real time    3.3072
    FORCOR:  cpu time    0.0867: real time    0.0869
    FORHAR:  cpu time    0.0189: real time    0.0190
    MIXING:  cpu time    0.0052: real time    0.0052
    OFIELD:  cpu time    0.0001: real time    0.0002

  FORCE on cell =-STRESS in cart. coord.  units (eV):
  Direction    XX          YY          ZZ          XY          YZ          ZX
  --------------------------------------------------------------------------------------
  Alpha Z   977.53324   977.53324   977.53324
  Ewald   -4922.82524 -5080.36119 -5023.26230    -0.00000     0.00000     0.00000
  Hartree  1174.71004  1029.19900  1084.57102    -0.00000    -0.00000    -0.00000
  E(xc)   -1025.99592 -1026.18921 -1026.08393    -0.00000     0.00000    -0.00000
  Local    -787.22763  -480.92566  -595.43261     0.00000    -0.00000     0.00000
  n-local   403.18968   403.25605   403.13434     0.57532     0.00037     0.00125
  augment   344.79629   342.83012   343.91536     0.00000     0.00000    -0.00000
  Kinetic  3837.93575  3835.18103  3836.73455    -1.33105    -0.00057    -0.00017
  Fock        0.00000     0.00000     0.00000     0.00000     0.00000     0.00000
  -------------------------------------------------------------------------------------
  Total       2.11622     0.52339     1.10966     0.00000     0.00000     0.00000
  in kB       9.55391     2.36288     5.00971     0.00000     0.00000     0.00000
  external pressure =        5.64 kB  Pullay stress =        0.00 kB


 VOLUME and BASIS-vectors are now :
 -----------------------------------------------------------------------------
  energy-cutoff  :      520.00
  volume of cell :      354.89
      direct lattice vectors                 reciprocal lattice vectors
     3.892188398  0.000000000  0.000000000     0.256924870  0.000000000  0.000000000
     0.000000000  7.798482618  0.000000000     0.000000000  0.128230074  0.000000000
     0.000000000  0.000000000 11.691914752     0.000000000  0.000000000  0.085529190

  length of vectors
     3.892188398  7.798482618 11.691914752     0.256924870  0.128230074  0.085529190


 FORCES acting on ions
    electron-ion (+dipol)            ewald-force                    non-local-force                 convergence-correction
 -----------------------------------------------------------------------------------------------
   -.103E-13 -.701E+02 -.939E+02   -.718E-13 0.696E+02 0.932E+02   0.000E+00 0.382E+00 0.701E+00   0.231E-13 0.279E-01 -.138E-01
   0.538E-15 0.701E+02 0.939E+02   0.552E-13 -.696E+02 -.932E+02   -.136E-19 -.382E+00 -.701E+00   0.540E-14 -.279E-01 0.138E-01
   -.862E-14 -.130E+03 0.986E-07   0.378E-13 0.129E+03 0.284E-13   0.000E+00 0.113E+01 0.000E+00   0.232E-13 0.365E-01 -.335E-13
   -.133E-14 0.701E+02 -.939E+02   0.341E-13 -.696E+02 0.932E+02   0.000E+00 -.382E+00 0.701E+00   0.138E-13 -.279E-01 -.138E-01
   -.624E-14 -.701E+02 0.939E+02   -.486E-13 0.696E+02 -.932E+02   -.542E-19 0.382E+00 -.701E+00   0.111E-13 0.279E-01 0.138E-01
   -.247E-14 0.130E+03 -.986E-07   -.512E-13 -.129E+03 0.000E+00   0.000E+00 -.113E+01 0.000E+00   0.739E-14 -.365E-01 -.390E-13
   0.579E-13 -.435E-12 0.911E-12   -.941E-14 -.172E-14 0.568E-13   0.000E+00 -.424E-21 0.000E+00   -.993E-14 0.741E-13 0.213E-13
   0.668E-13 -.209E-12 0.539E+01   0.711E-14 -.250E-13 -.515E+01   -.424E-21 0.000E+00 -.252E+00   -.208E-13 -.315E-13 0.365E-02
   0.593E-13 0.936E-13 -.539E+01   -.327E-14 0.140E-14 0.515E+01   0.000E+00 0.212E-21 0.252E+00   -.120E-13 -.426E-13 -.365E-02
   0.607E-13 0.148E-11 0.160E-11   -.173E-13 0.247E-14 0.853E-13   0.000E+00 0.136E-19 0.000E+00   -.162E-13 -.424E-13 0.613E-13
   0.329E-12 0.909E-12 0.477E+02   0.440E-13 0.633E-13 -.462E+02   0.000E+00 0.000E+00 -.146E+01   0.108E-13 0.119E-12 0.137E-01
   0.336E-12 0.630E-12 -.477E+02   -.268E-13 0.105E-12 0.462E+02   0.000E+00 -.529E-22 0.146E+01   0.536E-14 0.145E-12 -.137E-01
   0.116E-12 0.820E-12 0.354E+02   -.655E-14 -.474E-13 -.358E+02   0.000E+00 0.339E-20 0.388E+00   -.107E-13 -.325E-14 0.174E-01
   0.120E-12 0.205E-11 -.748E+02   -.310E-14 0.592E-14 0.700E+02   -.102E-19 -.339E-20 0.485E+01   -.238E-14 0.978E-13 0.845E-02
   0.117E-12 0.257E-11 0.782E-12   0.815E-14 0.222E-13 0.355E-13   0.000E+00 -.271E-19 0.000E+00   -.945E-15 -.223E-13 -.957E-13
   0.115E-12 0.212E-11 0.748E+02   -.720E-15 0.113E-13 -.700E+02   -.678E-20 -.203E-19 -.485E+01   0.671E-14 0.836E-13 -.845E-02
   0.114E-12 0.816E-12 -.354E+02   0.129E-13 -.260E-13 0.358E+02   0.000E+00 0.339E-20 -.388E+00   0.685E-14 -.231E-13 -.174E-01
   0.119E-12 0.230E-11 -.117E-11   0.968E-14 0.339E-13 0.426E-13   0.000E+00 0.678E-20 0.000E+00   -.273E-14 0.107E-12 0.427E-13
   0.113E-12 -.673E+02 0.133E+02   -.239E-13 0.619E+02 -.127E+02   0.000E+00 0.539E+01 -.624E+00   -.237E-14 0.338E-01 0.322E-02
   0.117E-12 0.281E+02 -.141E-06   0.644E-14 -.289E+02 0.426E-13   0.000E+00 0.706E+00 0.000E+00   0.443E-15 -.135E-02 0.655E-13
   0.114E-12 -.673E+02 -.133E+02   0.160E-13 0.619E+02 0.127E+02   0.000E+00 0.539E+01 0.624E+00   0.665E-14 0.338E-01 -.322E-02
   0.122E-12 0.673E+02 0.133E+02   -.211E-13 -.619E+02 -.127E+02   0.000E+00 -.539E+01 -.624E+00   0.407E-14 -.338E-01 0.322E-02
   0.115E-12 -.281E+02 0.141E-06   -.429E-15 0.289E+02 0.142E-13   0.000E+00 -.706E+00 0.000E+00   0.140E-13 0.135E-02 0.160E-13
   0.123E-12 0.673E+02 -.133E+02   0.277E-13 -.619E+02 0.127E+02   0.000E+00 -.539E+01 0.624E+00   0.190E-13 -.338E-01 -.322E-02
   -.517E-14 0.588E-12 0.203E+01   0.333E-14 0.755E-14 -.126E+01   0.000E+00 -.339E-20 -.843E+00   0.253E-13 -.177E-13 0.472E-02
   0.103E-14 0.749E-12 0.390E-12   0.122E-13 0.243E-13 0.284E-13   0.000E+00 0.136E-19 0.000E+00   0.111E-13 0.799E-13 0.147E-13
   0.342E-15 0.101E-11 -.203E+01   -.615E-14 0.155E-13 0.126E+01   0.000E+00 -.678E-20 0.843E+00   0.530E-14 -.443E-13 -.472E-02
   -.364E-14 0.106E-11 0.272E+02   -.401E-14 0.133E-13 -.270E+02   0.000E+00 0.542E-19 -.228E+00   0.110E-13 0.875E-13 0.412E-02
   -.696E-15 0.102E-11 0.372E-12   0.135E-13 0.200E-13 0.355E-13   0.000E+00 0.000E+00 0.000E+00   0.155E-13 -.161E-13 0.417E-13
   -.190E-14 0.815E-12 -.272E+02   -.130E-14 0.416E-13 0.270E+02   0.000E+00 -.322E-19 0.228E+00   0.347E-14 0.110E-12 -.412E-02
 -----------------------------------------------------------------------------------------------
   0.228E-11 0.298E-10 0.121E-10   -.753E-14 0.868E-13 -.391E-13   -.851E-19 0.355E-14 0.139E-15   0.151E-12 0.434E-12 0.362E-12
 
 
 POSITION                                       TOTAL-FORCE (eV/Angst)
 -----------------------------------------------------------------------------------
      0.00000      3.85746      3.83097        -0.000000     -0.050730     -0.063251
      0.00000      0.04178      7.86095        -0.000000      0.050730      0.063251
      0.00000      3.78169      0.00000        -0.000000     -0.177115     -0.000000
      0.00000      0.04178      3.83097         0.000000      0.050730     -0.063251
      0.00000      3.85746      7.86095        -0.000000     -0.050730      0.063251
      0.00000      0.11755      0.00000        -0.000000      0.177115     -0.000000
      1.94609      1.94962      5.84596        -0.000000      0.000000     -0.000000
      1.94609      5.84886      9.75365        -0.000000      0.000000     -0.009615
      1.94609      5.84886      1.93826        -0.000000      0.000000      0.009615
      1.94609      5.84886      5.84596        -0.000000      0.000000     -0.000000
      1.94609      1.94962      9.73412        -0.000000      0.000000     -0.015341
      1.94609      1.94962      1.95779        -0.000000      0.000000      0.015341
      1.94609      5.84886      7.79960         0.000000      0.000000     -0.001528
      1.94609      1.94962      3.94134        -0.000000      0.000000      0.070879
      1.94609      5.84886      0.00000        -0.000000      0.000000     -0.000000
      1.94609      1.94962      7.75058        -0.000000      0.000000     -0.070879
      1.94609      5.84886      3.89232         0.000000      0.000000      0.001528
      1.94609      1.94962      0.00000        -0.000000      0.000000     -0.000000
      1.94609      3.94945      9.72499         0.000000      0.034330     -0.021757
      1.94609      0.01008      5.84596        -0.000000     -0.116202     -0.000000
      1.94609      3.94945      1.96693         0.000000      0.034330      0.021757
      1.94609      7.74827      9.72499        -0.000000     -0.034330     -0.021757
      1.94609      3.88916      5.84596        -0.000000      0.116202     -0.000000
      1.94609      7.74827      1.96693        -0.000000     -0.034330      0.021757
      0.00000      5.84886      9.72066        -0.000000      0.000000     -0.067486
      0.00000      1.94962      5.84596        -0.000000      0.000000     -0.000000
      0.00000      5.84886      1.97125        -0.000000      0.000000      0.067486
      0.00000      1.94962      9.71763        -0.000000      0.000000     -0.038292
      0.00000      5.84886      5.84596        -0.000000      0.000000     -0.000000
      0.00000      1.94962      1.97428        -0.000000      0.000000      0.038292
 -----------------------------------------------------------------------------------
    total drift:                                0.000000      0.000000      0.000000


--------------------------------------------------------------------------------------------------------



  FREE ENERGIE OF THE ION-ELECTRON SYSTEM (eV)
  ---------------------------------------------------
  free  energy   TOTEN  =      -226.60487877 eV

  energy  without entropy=     -226.60487877  energy(sigma->0) =     -226.60487877
 


--------------------------------------------------------------------------------------------------------


    POTLOK:  cpu time    0.0867: real time    0.0870


--------------------------------------------------------------------------------------------------------


     LOOP+:  cpu time  104.0574: real time  104.4565
    4ORBIT:  cpu time    0.0000: real time    0.0000
 


 total charge     
 
# of ion       s       p       d       f       tot
--------------------------------------------------
    1        2.000   5.698   0.489   0.190   8.376
    2        2.000   5.698   0.489   0.190   8.376
    3        1.999   5.695   0.484   0.186   8.365
    4        2.000   5.698   0.489   0.190   8.376
    5        2.000   5.698   0.489   0.190   8.376
    6        2.000   5.695   0.484   0.186   8.366
    7        0.336   0.522   4.879   0.000   5.737
    8        0.336   0.522   4.871   0.000   5.729
    9        0.336   0.522   4.871   0.000   5.729
   10        0.316   0.474   4.879   0.000   5.669
   11        0.398   0.577   8.338   0.000   9.313
   12        0.398   0.577   8.338   0.000   9.313
   13        1.564   3.455   0.000   0.000   5.019
   14        1.561   3.462   0.000   0.000   5.023
   15        1.564   3.454   0.000   0.000   5.017
   16        1.561   3.462   0.000   0.000   5.023
   17        1.564   3.455   0.000   0.000   5.019
   18        1.555   3.462   0.000   0.000   5.017
   19        1.561   3.460   0.000   0.000   5.021
   20        1.564   3.455   0.000   0.000   5.020
   21        1.561   3.460   0.000   0.000   5.021
   22        1.561   3.460   0.000   0.000   5.021
   23        1.564   3.455   0.000   0.000   5.020
   24        1.561   3.460   0.000   0.000   5.021
   25        1.565   3.457   0.000   0.000   5.022
   26        1.565   3.461   0.000   0.000   5.025
   27        1.565   3.457   0.000   0.000   5.022
   28        1.555   3.464   0.000   0.000   5.019
   29        1.564   3.451   0.000   0.000   5.015
   30        1.555   3.464   0.000   0.000   5.019
--------------------------------------------------
tot         42.229  99.629  39.101   1.132 182.091

 


 magnetization (x)
 
# of ion       s       p       d       f       tot
--------------------------------------------------
    1        0.001   0.001   0.010   0.005   0.017
    2        0.001   0.001   0.010   0.005   0.017
    3        0.000   0.000   0.005   0.003   0.009
    4        0.001   0.001   0.010   0.005   0.017
    5        0.001   0.001   0.010   0.005   0.017
    6        0.000   0.000   0.005   0.003   0.009
    7        0.024   0.027   3.531   0.000   3.582
    8        0.024   0.028   3.510   0.000   3.561
    9        0.024   0.028   3.510   0.000   3.562
   10        0.023   0.019   3.716   0.000   3.758
   11        0.013   0.008   1.689   0.000   1.709
   12        0.013   0.008   1.689   0.000   1.709
   13        0.005  -0.050   0.000   0.000  -0.045
   14        0.005  -0.017   0.000   0.000  -0.012
   15        0.005  -0.032   0.000   0.000  -0.027
   16        0.005  -0.017   0.000   0.000  -0.012
   17        0.005  -0.050   0.000   0.000  -0.045
   18        0.007   0.034   0.000   0.000   0.041
   19        0.005  -0.009   0.000   0.000  -0.004
   20        0.005  -0.042   0.000   0.000  -0.037
   21        0.005  -0.009   0.000   0.000  -0.003
   22        0.005  -0.009   0.000   0.000  -0.003
   23        0.005  -0.042   0.000   0.000  -0.037
   24        0.005  -0.009   0.000   0.000  -0.003
   25        0.005  -0.046   0.000   0.000  -0.041
   26        0.005  -0.044   0.000   0.000  -0.040
   27        0.005  -0.046   0.000   0.000  -0.041
   28        0.006   0.020   0.000   0.000   0.027
   29        0.004  -0.050   0.000   0.000  -0.046
   30        0.006   0.020   0.000   0.000   0.027
--------------------------------------------------
tot          0.216  -0.276  17.695   0.027  17.663

 
 BZINTS: Fermi energy:  7.868927;222.000000 electrons
         Band energy:-365.698853;  BLOECHL correction: -0.137543

 total amount of memory used by VASP MPI-rank0    75951. kBytes
=======================================================================

   base      :      30000. kBytes
   nonlr-proj:       6851. kBytes
   fftplans  :       2694. kBytes
   grid      :       7580. kBytes
   one-center:        294. kBytes
   wavefun   :      28532. kBytes
 
  
  
 General timing and accounting informations for this job:
 ========================================================
  
                  Total CPU time used (sec):      113.187
                            User time (sec):      109.980
                          System time (sec):        3.207
                         Elapsed time (sec):      113.804
  
                   Maximum memory used (kb):      131264.
                   Average memory used (kb):           0.
  
                          Minor page faults:        40303
                          Major page faults:            0
                 Voluntary context switches:         1155
