       N       E                     dE             d eps       ncg     rms          rms(c)
DAV:   1     0.358977510006E+04    0.35898E+04   -0.80300E+04  3754   0.250E+03
DAV:   2     0.123925514861E+04   -0.23505E+04   -0.21250E+04  3904   0.646E+02
DAV:   3     0.269259978561E+03   -0.97000E+03   -0.86947E+03  3880   0.326E+02
DAV:   4    -0.151753396905E+03   -0.42101E+03   -0.39941E+03  5572   0.177E+02
DAV:   5    -0.242831376813E+03   -0.91078E+02   -0.87434E+02  6516   0.970E+01    0.838E+01
RMM:   6    -0.217500838848E+03    0.25331E+02   -0.73753E+02  5980   0.110E+02    0.107E+02
RMM:   7    -0.217192227813E+03    0.30861E+00   -0.14609E+02  6063   0.359E+01    0.526E+01
RMM:   8    -0.210568230583E+03    0.66240E+01   -0.80090E+01  4998   0.424E+01    0.288E+01
RMM:   9    -0.212972175298E+03   -0.24039E+01   -0.34512E+01  5591   0.179E+01    0.249E+01
RMM:  10    -0.212796535695E+03    0.17564E+00   -0.67381E+00  5831   0.938E+00    0.195E+01
RMM:  11    -0.212759501158E+03    0.37035E-01   -0.25780E+00  6202   0.486E+00    0.131E+01
RMM:  12    -0.212911078685E+03   -0.15158E+00   -0.21846E+00  6057   0.399E+00    0.867E+00
RMM:  13    -0.213112054271E+03   -0.20098E+00   -0.12723E+00  6119   0.327E+00    0.691E+00
RMM:  14    -0.213286031746E+03   -0.17398E+00   -0.47188E-01  5837   0.218E+00    0.423E+00
RMM:  15    -0.213407911598E+03   -0.12188E+00   -0.23161E-01  5807   0.138E+00    0.261E+00
RMM:  16    -0.213431781659E+03   -0.23870E-01   -0.12034E-01  5488   0.119E+00    0.223E+00
RMM:  17    -0.213484800921E+03   -0.53019E-01   -0.77750E-02  5365   0.771E-01    0.167E+00
RMM:  18    -0.213536737871E+03   -0.51937E-01   -0.63854E-02  5441   0.829E-01    0.123E+00
RMM:  19    -0.213570018087E+03   -0.33280E-01   -0.73022E-02  5417   0.795E-01    0.118E+00
RMM:  20    -0.213578770306E+03   -0.87522E-02   -0.21347E-02  4569   0.515E-01    0.882E-01
RMM:  21    -0.213576415588E+03    0.23547E-02   -0.27631E-02  4782   0.549E-01    0.665E-01
RMM:  22    -0.213576178612E+03    0.23698E-03   -0.97049E-03  3883   0.373E-01
   1 F= -.21357618E+03 E0= -.21357618E+03  d E =0.000000E+00  mag=    12.0415
