       N       E                     dE             d eps       ncg     rms          rms(c)
DAV:   1     0.293260849207E+04    0.29326E+04   -0.68237E+04  4712   0.250E+03
DAV:   2     0.984455773671E+03   -0.19482E+04   -0.17593E+04  4920   0.620E+02
DAV:   3     0.185942871380E+03   -0.79851E+03   -0.71345E+03  4896   0.315E+02
DAV:   4    -0.138241910928E+03   -0.32418E+03   -0.30772E+03  7144   0.167E+02
DAV:   5    -0.200268460768E+03   -0.62027E+02   -0.59179E+02  8228   0.871E+01    0.789E+01
RMM:   6    -0.178439871789E+03    0.21829E+02   -0.60049E+02  7683   0.106E+02    0.102E+02
RMM:   7    -0.174244144374E+03    0.41957E+01   -0.10654E+02  7468   0.348E+01    0.458E+01
RMM:   8    -0.170789927738E+03    0.34542E+01   -0.29586E+01  6781   0.294E+01    0.212E+01
RMM:   9    -0.172663628123E+03   -0.18737E+01   -0.16941E+01  7327   0.152E+01    0.106E+01
RMM:  10    -0.173063004736E+03   -0.39938E+00   -0.30339E+00  8042   0.503E+00    0.684E+00
RMM:  11    -0.173360093713E+03   -0.29709E+00   -0.16051E+00  7787   0.379E+00    0.386E+00
RMM:  12    -0.173462061058E+03   -0.10197E+00   -0.60229E-01  7504   0.300E+00    0.315E+00
RMM:  13    -0.173474216022E+03   -0.12155E-01   -0.27835E-01  7390   0.206E+00    0.158E+00
RMM:  14    -0.173485924909E+03   -0.11709E-01   -0.11512E-01  7137   0.115E+00    0.675E-01
RMM:  15    -0.173494492535E+03   -0.85676E-02   -0.66644E-02  6794   0.703E-01    0.350E-01
RMM:  16    -0.173498312217E+03   -0.38197E-02   -0.29832E-02  5667   0.502E-01    0.228E-01
RMM:  17    -0.173500118893E+03   -0.18067E-02   -0.19116E-02  4864   0.405E-01    0.118E-01
RMM:  18    -0.173501393968E+03   -0.12751E-02   -0.14334E-02  4561   0.360E-01    0.536E-02
RMM:  19    -0.173502522537E+03   -0.11286E-02   -0.98307E-03  4402   0.339E-01    0.811E-02
RMM:  20    -0.173503160814E+03   -0.63828E-03   -0.70331E-03  4318   0.304E-01
   1 F= -.17350316E+03 E0= -.17350316E+03  d E =0.000000E+00  mag=     8.0016
