       N       E                     dE             d eps       ncg     rms          rms(c)
DAV:   1     0.357404058293E+04    0.35740E+04   -0.78217E+04  7546   0.244E+03
DAV:   2     0.124239057675E+04   -0.23317E+04   -0.20964E+04  7744   0.637E+02
DAV:   3     0.273008106943E+03   -0.96938E+03   -0.86753E+03  7808   0.327E+02
DAV:   4    -0.157420582688E+03   -0.43043E+03   -0.40561E+03 11152   0.179E+02
DAV:   5    -0.249531654101E+03   -0.92111E+02   -0.88568E+02 12872   0.983E+01    0.755E+01
RMM:   6    -0.224383254296E+03    0.25148E+02   -0.72000E+02 11768   0.106E+02    0.101E+02
RMM:   7    -0.223304780842E+03    0.10785E+01   -0.14140E+02 12256   0.363E+01    0.409E+01
RMM:   8    -0.217846864157E+03    0.54579E+01   -0.45076E+01  9455   0.344E+01    0.194E+01
RMM:   9    -0.220026491404E+03   -0.21796E+01   -0.24028E+01 11590   0.151E+01    0.161E+01
RMM:  10    -0.220452037270E+03   -0.42555E+00   -0.60311E+00 13027   0.563E+00    0.800E+00
RMM:  11    -0.220446449545E+03    0.55877E-02   -0.22720E+00 12422   0.473E+00    0.465E+00
RMM:  12    -0.220526986495E+03   -0.80537E-01   -0.98023E-01 13116   0.229E+00    0.263E+00
RMM:  13    -0.220564559724E+03   -0.37573E-01   -0.28253E-01 12776   0.132E+00    0.183E+00
RMM:  14    -0.220586606268E+03   -0.22047E-01   -0.15515E-01 11737   0.111E+00    0.115E+00
RMM:  15    -0.220593541000E+03   -0.69347E-02   -0.65396E-02 11007   0.727E-01    0.668E-01
RMM:  16    -0.220595998217E+03   -0.24572E-02   -0.35551E-02  9442   0.463E-01    0.361E-01
RMM:  17    -0.220598369946E+03   -0.23717E-02   -0.25147E-02  9479   0.502E-01    0.114E-01
RMM:  18    -0.220599949032E+03   -0.15791E-02   -0.14673E-02  7599   0.360E-01    0.976E-02
RMM:  19    -0.220600554210E+03   -0.60518E-03   -0.76003E-03  6985   0.335E-01
   1 F= -.22060055E+03 E0= -.22060055E+03  d E =0.000000E+00  mag=    15.0018
