       N       E                     dE             d eps       ncg     rms          rms(c)
DAV:   1     0.290336747275E+04    0.29034E+04   -0.64245E+04  3048   0.239E+03
DAV:   2     0.975468074050E+03   -0.19279E+04   -0.17358E+04  3288   0.620E+02
DAV:   3     0.183808207200E+03   -0.79166E+03   -0.71779E+03  3432   0.326E+02
DAV:   4    -0.151104871851E+03   -0.33491E+03   -0.31595E+03  4688   0.174E+02
DAV:   5    -0.218515693798E+03   -0.67411E+02   -0.65703E+02  5200   0.883E+01    0.621E+01
RMM:   6    -0.192844946670E+03    0.25671E+02   -0.56056E+02  4790   0.981E+01    0.946E+01
RMM:   7    -0.195782424813E+03   -0.29375E+01   -0.10649E+02  4995   0.349E+01    0.505E+01
RMM:   8    -0.189377251353E+03    0.64052E+01   -0.67481E+01  3602   0.479E+01    0.260E+01
RMM:   9    -0.193209221946E+03   -0.38320E+01   -0.38304E+01  4425   0.181E+01    0.225E+01
RMM:  10    -0.193112548317E+03    0.96674E-01   -0.73208E+00  4941   0.868E+00    0.143E+01
RMM:  11    -0.192330198350E+03    0.78235E+00   -0.55062E+00  4785   0.789E+00    0.107E+01
RMM:  12    -0.192454004311E+03   -0.12381E+00   -0.31870E+00  5331   0.377E+00    0.938E+00
RMM:  13    -0.192513825003E+03   -0.59821E-01   -0.88243E-01  5466   0.154E+00    0.939E+00
RMM:  14    -0.192579775063E+03   -0.65950E-01   -0.88834E-01  4980   0.274E+00    0.966E+00
RMM:  15    -0.192657015613E+03   -0.77241E-01   -0.60760E-01  5326   0.160E+00    0.101E+01
RMM:  16    -0.192671287464E+03   -0.14272E-01   -0.13298E-01  4240   0.807E-01    0.103E+01
RMM:  17    -0.192614467591E+03    0.56820E-01   -0.32911E-02  4193   0.105E+00    0.978E+00
RMM:  18    -0.192601820156E+03    0.12647E-01   -0.25182E-02  4536   0.754E-01    0.939E+00
RMM:  19    -0.192655194370E+03   -0.53374E-01   -0.23702E+00  4214   0.553E+00    0.662E+00
RMM:  20    -0.193095059014E+03   -0.43986E+00   -0.30483E+00  4997   0.480E+00    0.823E+00
RMM:  21    -0.193255684424E+03   -0.16063E+00   -0.67794E-01  5099   0.234E+00    0.892E+00
RMM:  22    -0.193308675605E+03   -0.52991E-01   -0.17181E-01  4519   0.109E+00    0.925E+00
RMM:  23    -0.192944518143E+03    0.36416E+00   -0.31349E-01  4447   0.195E+00    0.780E+00
RMM:  24    -0.192743470055E+03    0.20105E+00   -0.45162E-01  4728   0.210E+00    0.666E+00
RMM:  25    -0.192739230767E+03    0.42393E-02   -0.70671E-02  4113   0.978E-01    0.628E+00
RMM:  26    -0.192647190832E+03    0.92040E-01   -0.16409E-01  4568   0.137E+00    0.416E+00
RMM:  27    -0.192625554179E+03    0.21637E-01   -0.79976E-02  4455   0.831E-01    0.368E+00
RMM:  28    -0.192607348839E+03    0.18205E-01   -0.33963E-02  4153   0.673E-01    0.330E+00
RMM:  29    -0.192571827145E+03    0.35522E-01   -0.89754E-02  4535   0.109E+00    0.244E+00
RMM:  30    -0.192546163988E+03    0.25663E-01   -0.11676E-01  4715   0.109E+00    0.149E+00
RMM:  31    -0.192533858845E+03    0.12305E-01   -0.12083E-01  4685   0.111E+00    0.587E-01
RMM:  32    -0.192534710768E+03   -0.85192E-03   -0.56450E-02  4446   0.689E-01    0.229E-01
RMM:  33    -0.192535387986E+03   -0.67722E-03   -0.11357E-02  3176   0.393E-01    0.226E-01
RMM:  34    -0.192535343369E+03    0.44617E-04   -0.20099E-03  2530   0.316E-01
   1 F= -.19253534E+03 E0= -.19253534E+03  d E =0.000000E+00  mag=    16.9967
