       N       E                     dE             d eps       ncg     rms          rms(c)
DAV:   1     0.292831035788E+04    0.29283E+04   -0.66121E+04  3088   0.246E+03
DAV:   2     0.984839196692E+03   -0.19435E+04   -0.17538E+04  3232   0.634E+02
DAV:   3     0.200508110699E+03   -0.78433E+03   -0.71065E+03  3320   0.327E+02
DAV:   4    -0.138909387921E+03   -0.33942E+03   -0.32200E+03  4688   0.174E+02
DAV:   5    -0.211416141425E+03   -0.72507E+02   -0.70086E+02  5208   0.911E+01    0.674E+01
RMM:   6    -0.190100383141E+03    0.21316E+02   -0.62388E+02  4843   0.104E+02    0.995E+01
RMM:   7    -0.191009024886E+03   -0.90864E+00   -0.11644E+02  5076   0.340E+01    0.520E+01
RMM:   8    -0.183330518566E+03    0.76785E+01   -0.84907E+01  3778   0.519E+01    0.246E+01
RMM:   9    -0.187161893466E+03   -0.38314E+01   -0.42127E+01  4691   0.185E+01    0.199E+01
RMM:  10    -0.187095278593E+03    0.66615E-01   -0.71332E+00  4803   0.997E+00    0.141E+01
RMM:  11    -0.186766940450E+03    0.32834E+00   -0.33512E+00  5030   0.558E+00    0.109E+01
RMM:  12    -0.186669903432E+03    0.97037E-01   -0.18697E+00  5142   0.389E+00    0.894E+00
RMM:  13    -0.186687832848E+03   -0.17929E-01   -0.74570E-01  5124   0.236E+00    0.666E+00
RMM:  14    -0.186719263463E+03   -0.31431E-01   -0.24117E-01  4960   0.145E+00    0.448E+00
RMM:  15    -0.186728622263E+03   -0.93588E-02   -0.11752E-01  4626   0.105E+00    0.285E+00
RMM:  16    -0.186735782229E+03   -0.71600E-02   -0.62448E-02  4231   0.726E-01    0.208E+00
RMM:  17    -0.186738856051E+03   -0.30738E-02   -0.87731E-02  4443   0.102E+00    0.563E-01
RMM:  18    -0.186742999295E+03   -0.41432E-02   -0.32533E-02  3870   0.549E-01    0.314E-01
RMM:  19    -0.186743695821E+03   -0.69653E-03   -0.75735E-03  2803   0.409E-01
   1 F= -.18674370E+03 E0= -.18674370E+03  d E =0.000000E+00  mag=    14.0852
