 vasp.5.4.4.18Apr17-6-g9f103f2a35 (build Oct 03 2018 13:58:34) complex          
  
 executed on             LinuxIFC date 2019.06.04  00:52:48
 running on   40 total cores
 distrk:  each k-point on   20 cores,    2 groups
 distr:  one band on NCORES_PER_BAND=  10 cores,    2 groups


--------------------------------------------------------------------------------------------------------


 INCAR:
 POTCAR:    PAW_PBE La 06Sep2000                  
 POTCAR:    PAW_PBE Mn 06Sep2000                  
 POTCAR:    PAW_PBE Ni 02Aug2007                  
 POTCAR:    PAW_PBE O 08Apr2002                   

 ----------------------------------------------------------------------------- 
|                                                                             |
|           W    W    AA    RRRRR   N    N  II  N    N   GGGG   !!!           |
|           W    W   A  A   R    R  NN   N  II  NN   N  G    G  !!!           |
|           W    W  A    A  R    R  N N  N  II  N N  N  G       !!!           |
|           W WW W  AAAAAA  RRRRR   N  N N  II  N  N N  G  GGG   !            |
|           WW  WW  A    A  R   R   N   NN  II  N   NN  G    G                |
|           W    W  A    A  R    R  N    N  II  N    N   GGGG   !!!           |
|                                                                             |
|      You have enabled k-point parallelism (KPAR>1).                         |
|      This developmental code was originally  written by Paul Kent at ORNL,  |
|      and carefully double checked in Vienna.                                |
|      GW as well as linear response parallelism added by Martijn Marsman     |
|      and Georg Kresse.                                                      |
|      Carefully verify results versus KPAR=1.                                |
|      Report problems to Paul Kent and Vienna.                               |
|                                                                             |
 ----------------------------------------------------------------------------- 

 POTCAR:    PAW_PBE La 06Sep2000                  
   VRHFIN =La : [core=Kr4d]                                                     
   LEXCH  = PE                                                                  
   EATOM  =   865.9763 eV,   63.6475 Ry                                         
                                                                                
   TITEL  = PAW_PBE La 06Sep2000                                                
   LULTRA =        F    use ultrasoft PP ?                                      
   IUNSCR =        1    unscreen: 0-lin 1-nonlin 2-no                           
   RPACOR =    2.300    partial core radius                                     
   POMASS =  138.900; ZVAL   =   11.000    mass and valenz                      
   RCORE  =    2.800    outmost cutoff radius                                   
   RWIGS  =    2.900; RWIGS  =    1.535    wigner-seitz radius (au A)           
   ENMAX  =  219.292; ENMIN  =  164.469 eV                                      
   RCLOC  =    1.601    cutoff for local pot                                    
   LCOR   =        T    correct aug charges                                     
   LPAW   =        T    paw PP                                                  
   EAUG   =  583.575                                                            
   DEXC   =    0.000                                                            
   RMAX   =    2.853    core radius for proj-oper                               
   RAUG   =    1.300    factor for augmentation sphere                          
   RDEP   =    2.802    radius for radial grids                                 
   RDEPT  =    2.156    core radius for aug-charge                              
                                                                                
   Atomic configuration                                                         
   14 entries                                                                   
     n  l   j            E        occ.                                          
     1  0  0.50    -38741.0879   2.0000                                         
     2  0  0.50     -6166.6801   2.0000                                         
     2  1  1.50     -5526.1593   6.0000                                         
     3  0  0.50     -1319.0200   2.0000                                         
     3  1  1.50     -1114.5963   6.0000                                         
     3  2  2.50      -821.1793  10.0000                                         
     4  0  0.50      -266.3851   2.0000                                         
     4  1  1.50      -199.9276   6.0000                                         
     4  2  2.50      -103.8239  10.0000                                         
     5  0  0.50       -38.9172   2.0000                                         
     6  0  0.50        -3.6792   2.0000                                         
     5  1  1.50       -22.3948   6.0000                                         
     5  2  2.50        -3.0911   0.9999                                         
     4  3  2.50        -4.3603   0.0001                                         
   Description                                                                  
     l       E           TYP  RCUT    TYP  RCUT                                 
     0    -38.9171645     23  2.800                                             
     0     -3.6792381     23  2.800                                             
     1    -22.3948300     23  2.500                                             
     1     27.2116520     23  2.500                                             
     2     -3.0910934     23  2.500                                             
     2      1.0119135     23  2.500                                             
     3     -4.3602911     23  2.800                                             
     3     -5.7208737     23  2.800                                             
  local pseudopotential read in
  partial core-charges read in
  partial kinetic energy density read in
  atomic valenz-charges read in
  non local Contribution for L=           0  read in
    real space projection operators read in
  non local Contribution for L=           0  read in
    real space projection operators read in
  non local Contribution for L=           1  read in
    real space projection operators read in
  non local Contribution for L=           1  read in
    real space projection operators read in
  non local Contribution for L=           2  read in
    real space projection operators read in
  non local Contribution for L=           2  read in
    real space projection operators read in
  non local Contribution for L=           3  read in
    real space projection operators read in
  non local Contribution for L=           3  read in
    real space projection operators read in
    PAW grid and wavefunctions read in
 
   number of l-projection  operators is LMAX  =           8
   number of lm-projection operators is LMMAX =          32
 
 POTCAR:    PAW_PBE Mn 06Sep2000                  
   VRHFIN =Mn: d6 s1                                                            
   LEXCH  = PE                                                                  
   EATOM  =   416.7541 eV,   30.6306 Ry                                         
                                                                                
   TITEL  = PAW_PBE Mn 06Sep2000                                                
   LULTRA =        F    use ultrasoft PP ?                                      
   IUNSCR =        1    unscreen: 0-lin 1-nonlin 2-no                           
   RPACOR =    2.000    partial core radius                                     
   POMASS =   54.938; ZVAL   =    7.000    mass and valenz                      
   RCORE  =    2.300    outmost cutoff radius                                   
   RWIGS  =    2.500; RWIGS  =    1.323    wigner-seitz radius (au A)           
   ENMAX  =  269.864; ENMIN  =  202.398 eV                                      
   RCLOC  =    1.725    cutoff for local pot                                    
   LCOR   =        T    correct aug charges                                     
   LPAW   =        T    paw PP                                                  
   EAUG   =  500.711                                                            
   DEXC   =    0.000                                                            
   RMAX   =    2.343    core radius for proj-oper                               
   RAUG   =    1.300    factor for augmentation sphere                          
   RDEP   =    2.338    radius for radial grids                                 
   RDEPT  =    1.911    core radius for aug-charge                              
                                                                                
   Atomic configuration                                                         
    9 entries                                                                   
     n  l   j            E        occ.                                          
     1  0  0.50     -6424.8288   2.0000                                         
     2  0  0.50      -739.1154   2.0000                                         
     2  1  1.50      -625.3949   6.0000                                         
     3  0  0.50       -81.6100   2.0000                                         
     3  1  1.50       -50.4667   6.0000                                         
     3  2  2.50        -3.3745   6.0000                                         
     4  0  0.50        -4.1331   1.0000                                         
     4  1  0.50        -4.0817   0.0000                                         
     4  3  2.50        -1.3606   0.0000                                         
   Description                                                                  
     l       E           TYP  RCUT    TYP  RCUT                                 
     2     -3.3744664     23  2.300                                             
     2     -4.7350490     23  2.300                                             
     0     -4.1331408     23  2.300                                             
     0      7.6656614     23  2.300                                             
     1     -2.7211652     23  2.300                                             
     1     20.4087390     23  2.300                                             
  local pseudopotential read in
  partial core-charges read in
  partial kinetic energy density read in
  atomic valenz-charges read in
  non local Contribution for L=           2  read in
    real space projection operators read in
  non local Contribution for L=           2  read in
    real space projection operators read in
  non local Contribution for L=           0  read in
    real space projection operators read in
  non local Contribution for L=           0  read in
    real space projection operators read in
  non local Contribution for L=           1  read in
    real space projection operators read in
  non local Contribution for L=           1  read in
    real space projection operators read in
    PAW grid and wavefunctions read in
 
   number of l-projection  operators is LMAX  =           6
   number of lm-projection operators is LMMAX =          18
 
 POTCAR:    PAW_PBE Ni 02Aug2007                  
   VRHFIN =Ni:                                                                  
   LEXCH  = PE                                                                  
   EATOM  =  1077.6739 eV,   79.2068 Ry                                         
                                                                                
   TITEL  = PAW_PBE Ni 02Aug2007                                                
   LULTRA =        F    use ultrasoft PP ?                                      
   IUNSCR =        1    unscreen: 0-lin 1-nonlin 2-no                           
   RPACOR =    2.000    partial core radius                                     
   POMASS =   58.690; ZVAL   =   10.000    mass and valenz                      
   RCORE  =    2.300    outmost cutoff radius                                   
   RWIGS  =    2.430; RWIGS  =    1.286    wigner-seitz radius (au A)           
   ENMAX  =  269.532; ENMIN  =  202.149 eV                                      
   RCLOC  =    1.201    cutoff for local pot                                    
   LCOR   =        T    correct aug charges                                     
   LPAW   =        T    paw PP                                                  
   EAUG   =  544.565                                                            
   DEXC   =    0.000                                                            
   RMAX   =    2.357    core radius for proj-oper                               
   RAUG   =    1.300    factor for augmentation sphere                          
   RDEP   =    2.390    radius for radial grids                                 
   RDEPT  =    1.838    core radius for aug-charge                              
                                                                                
   Atomic configuration                                                         
    9 entries                                                                   
     n  l   j            E        occ.                                          
     1  0  0.50     -8206.4253   2.0000                                         
     2  0  0.50      -976.1748   2.0000                                         
     2  1  1.50      -839.0571   6.0000                                         
     3  0  0.50      -105.9991   2.0000                                         
     3  1  1.50       -66.4603   6.0000                                         
     3  2  2.50        -4.6458   9.0000                                         
     4  0  0.50        -4.4926   1.0000                                         
     4  1  1.50        -4.0817   0.0000                                         
     4  3  2.50        -1.3606   0.0000                                         
   Description                                                                  
     l       E           TYP  RCUT    TYP  RCUT                                 
     2     -4.6457903     23  2.300                                             
     2     -6.0063729     23  2.300                                             
     0     -4.4925590     23  2.300                                             
     0      5.0102601     23  2.300                                             
     1     -2.7211652     23  2.300                                             
     1     16.5183231     23  2.300                                             
  local pseudopotential read in
  partial core-charges read in
  partial kinetic energy density read in
  atomic valenz-charges read in
  non local Contribution for L=           2  read in
    real space projection operators read in
  non local Contribution for L=           2  read in
    real space projection operators read in
  non local Contribution for L=           0  read in
    real space projection operators read in
  non local Contribution for L=           0  read in
    real space projection operators read in
  non local Contribution for L=           1  read in
    real space projection operators read in
  non local Contribution for L=           1  read in
    real space projection operators read in
    PAW grid and wavefunctions read in
 
   number of l-projection  operators is LMAX  =           6
   number of lm-projection operators is LMMAX =          18
 
 POTCAR:    PAW_PBE O 08Apr2002                   
   VRHFIN =O: s2p4                                                              
   LEXCH  = PE                                                                  
   EATOM  =   432.3788 eV,   31.7789 Ry                                         
                                                                                
   TITEL  = PAW_PBE O 08Apr2002                                                 
   LULTRA =        F    use ultrasoft PP ?                                      
   IUNSCR =        1    unscreen: 0-lin 1-nonlin 2-no                           
   RPACOR =    1.200    partial core radius                                     
   POMASS =   16.000; ZVAL   =    6.000    mass and valenz                      
   RCORE  =    1.520    outmost cutoff radius                                   
   RWIGS  =    1.550; RWIGS  =    0.820    wigner-seitz radius (au A)           
   ENMAX  =  400.000; ENMIN  =  300.000 eV                                      
   ICORE  =        2    local potential                                         
   LCOR   =        T    correct aug charges                                     
   LPAW   =        T    paw PP                                                  
   EAUG   =  605.392                                                            
   DEXC   =    0.000                                                            
   RMAX   =    1.553    core radius for proj-oper                               
   RAUG   =    1.300    factor for augmentation sphere                          
   RDEP   =    1.550    radius for radial grids                                 
   RDEPT  =    1.329    core radius for aug-charge                              
                                                                                
   Atomic configuration                                                         
    4 entries                                                                   
     n  l   j            E        occ.                                          
     1  0  0.50      -514.6923   2.0000                                         
     2  0  0.50       -23.9615   2.0000                                         
     2  1  0.50        -9.0305   4.0000                                         
     3  2  1.50        -9.5241   0.0000                                         
   Description                                                                  
     l       E           TYP  RCUT    TYP  RCUT                                 
     0    -23.9615318     23  1.200                                             
     0     -9.5240782     23  1.200                                             
     1     -9.0304911     23  1.520                                             
     1      8.1634956     23  1.520                                             
     2     -9.5240782      7  1.500                                             
  local pseudopotential read in
  partial core-charges read in
  partial kinetic energy density read in
  kinetic energy density of atom read in
  atomic valenz-charges read in
  non local Contribution for L=           0  read in
    real space projection operators read in
  non local Contribution for L=           0  read in
    real space projection operators read in
  non local Contribution for L=           1  read in
    real space projection operators read in
  non local Contribution for L=           1  read in
    real space projection operators read in
    PAW grid and wavefunctions read in
 
   number of l-projection  operators is LMAX  =           4
   number of lm-projection operators is LMMAX =           8
 
 Optimization of the real space projectors (new method)

 maximal supplied QI-value         = 13.42
 optimisation between [QCUT,QGAM] = [ 11.67, 23.35] = [ 38.16,152.62] Ry 
 Optimized for a Real-space Cutoff    1.63 Angstroem

   l    n(q)    QCUT    max X(q) W(low)/X(q) W(high)/X(q)  e(spline) 
   0     11    11.673    13.882    0.27E-04    0.79E-05    0.11E-06
   0     11    11.673    12.184    0.39E-04    0.13E-04    0.19E-06
   1     11    11.673     4.523    0.73E-05    0.76E-05    0.12E-06
   1     11    11.673     4.424    0.87E-05    0.13E-04    0.19E-06
   2     10    11.673    52.481    0.65E-04    0.36E-04    0.18E-06
   2     10    11.673    38.501    0.61E-04    0.33E-04    0.17E-06
   3     10    11.673    65.631    0.17E-03    0.14E-03    0.37E-06
   3     10    11.673    56.854    0.17E-03    0.14E-03    0.37E-06
 Optimization of the real space projectors (new method)

 maximal supplied QI-value         = 16.25
 optimisation between [QCUT,QGAM] = [ 11.54, 23.24] = [ 37.28,151.24] Ry 
 Optimized for a Real-space Cutoff    1.53 Angstroem

   l    n(q)    QCUT    max X(q) W(low)/X(q) W(high)/X(q)  e(spline) 
   2     10    11.539   110.144    0.12E-03    0.13E-03    0.25E-06
   2     10    11.539   103.200    0.12E-03    0.13E-03    0.25E-06
   0     11    11.539    68.437    0.46E-04    0.21E-04    0.32E-06
   0     11    11.539    33.971    0.37E-04    0.19E-04    0.29E-06
   1     10    11.539    17.065    0.51E-04    0.22E-04    0.13E-06
   1     10    11.539    12.540    0.41E-04    0.18E-04    0.11E-06
 Optimization of the real space projectors (new method)

 maximal supplied QI-value         = 16.25
 optimisation between [QCUT,QGAM] = [ 11.54, 23.24] = [ 37.28,151.24] Ry 
 Optimized for a Real-space Cutoff    1.45 Angstroem

   l    n(q)    QCUT    max X(q) W(low)/X(q) W(high)/X(q)  e(spline) 
   2      9    11.539    60.317    0.19E-03    0.47E-04    0.16E-06
   2      9    11.539    55.921    0.19E-03    0.48E-04    0.16E-06
   0     10    11.539    51.690    0.80E-04    0.50E-04    0.24E-06
   0     10    11.539    30.015    0.73E-04    0.45E-04    0.22E-06
   1     10    11.539    18.849    0.87E-04    0.16E-03    0.71E-07
   1     10    11.539    14.624    0.73E-04    0.13E-03    0.64E-07
 Optimization of the real space projectors (new method)

 maximal supplied QI-value         = 24.76
 optimisation between [QCUT,QGAM] = [ 11.64, 23.27] = [ 37.91,151.63] Ry 
 Optimized for a Real-space Cutoff    1.14 Angstroem

   l    n(q)    QCUT    max X(q) W(low)/X(q) W(high)/X(q)  e(spline) 
   0      8    11.635    20.381    0.10E-03    0.33E-03    0.24E-06
   0      8    11.635    15.268    0.11E-03    0.35E-03    0.26E-06
   1      7    11.635     5.964    0.24E-03    0.31E-03    0.30E-06
   1      7    11.635     5.382    0.22E-03    0.25E-03    0.26E-06
  PAW_PBE La 06Sep2000                  :
 energy of atom  1       EATOM= -865.9763
 kinetic energy error for atom=    0.0009 (will be added to EATOM!!)
  PAW_PBE Mn 06Sep2000                  :
 energy of atom  2       EATOM= -416.7541
 kinetic energy error for atom=    0.0024 (will be added to EATOM!!)
  PAW_PBE Ni 02Aug2007                  :
 energy of atom  3       EATOM=-1077.6739
 kinetic energy error for atom=    0.0030 (will be added to EATOM!!)
  PAW_PBE O 08Apr2002                   :
 energy of atom  4       EATOM= -432.3788
 kinetic energy error for atom=    0.0208 (will be added to EATOM!!)
 
 
 POSCAR: SCEL5_5_1_1_0_3_1/0                     
  positions in direct lattice
  velocities in cartesian coordinates
 exchange correlation table for  LEXCH =        8
   RHO(1)=    0.500       N(1)  =     2000
   RHO(2)=  100.500       N(2)  =     4000
 


--------------------------------------------------------------------------------------------------------


 ion  position               nearest neighbor table
   1  0.803  0.198  0.605-  25 2.73  18 2.73  20 2.73  22 2.73  12 2.76  14 2.77  14 2.77  11 2.77
                            19 2.80  21 2.80  24 2.81  17 2.81   8 3.36   6 3.36  10 3.36  10 3.36
   2  0.597  0.395  0.194-  15 2.72  18 2.73  25 2.73  19 2.76  21 2.76  13 2.77  13 2.77  16 2.77
                            23 2.77  11 2.81  24 2.81  17 2.81  10 3.34   7 3.37   8 3.37   8 3.37
   3  0.400  0.600  0.800-  12 2.76  12 2.76  24 2.77  17 2.77  16 2.77  23 2.77  14 2.77  15 2.77
                            22 2.77  20 2.77  25 2.77  18 2.77   9 3.38   7 3.38   6 3.39   8 3.39
   4  0.203  0.805  0.406-  14 2.72  20 2.73  22 2.73  19 2.76  21 2.76  11 2.77  11 2.77  24 2.77
                            17 2.77  13 2.81  23 2.81  16 2.81  10 3.34   9 3.37   6 3.37   6 3.37
   5  0.997  0.002  0.995-  20 2.73  22 2.73  18 2.73  25 2.73  12 2.76  15 2.77  15 2.77  13 2.77
                            19 2.80  21 2.80  23 2.81  16 2.81   6 3.36   8 3.36  10 3.36  10 3.36
   6  0.800  0.701  0.600-  24 1.93  17 1.93  20 1.93  22 1.93  12 1.97  11 1.99   5 3.36   1 3.36
                             4 3.37   4 3.37   3 3.39   3 3.39   1 3.42
   7  0.599  0.900  0.199-  11 1.93  15 1.93  21 1.96  19 1.96  16 1.99  23 1.99   2 3.37   3 3.38
                             4 3.41   4 3.41   5 3.41   5 3.41   2 3.41
   8  0.000  0.499  0.000-  23 1.93  16 1.93  18 1.93  25 1.93  12 1.97  13 1.99   1 3.36   5 3.36
                             2 3.37   2 3.37   3 3.39   3 3.39   5 3.42
   9  0.201  0.300  0.401-  13 1.93  14 1.93  19 1.96  21 1.96  24 1.99  17 1.99   4 3.37   3 3.38
                             2 3.41   2 3.41   1 3.41   1 3.41   4 3.41
  10  0.400  0.100  0.800-  14 1.98  15 1.98  18 1.98  22 1.98  25 1.98  20 1.98   4 3.34   2 3.34
                             1 3.36   1 3.36   5 3.36   5 3.36
  11  0.698  0.802  0.396-   7 1.93   6 1.99   4 2.77   4 2.77   1 2.77   2 2.81
  12  0.900  0.600  0.800-   6 1.97   8 1.97   1 2.76   5 2.76   3 2.76   3 2.76
  13  0.102  0.398  0.204-   9 1.93   8 1.99   2 2.77   2 2.77   5 2.77   4 2.81
  14  0.299  0.201  0.598-   9 1.93  10 1.98   4 2.72   1 2.77   1 2.77   3 2.77
  15  0.501  0.999  0.002-   7 1.93  10 1.98   2 2.72   5 2.77   5 2.77   3 2.77
  16  0.803  0.696  0.098-   8 1.93   7 1.99   3 2.77   2 2.77   5 2.81   4 2.81
  17  0.997  0.504  0.502-   6 1.93   9 1.99   3 2.77   4 2.77   1 2.81   2 2.81
  18  0.198  0.302  0.902-   8 1.93  10 1.98   2 2.73   1 2.73   5 2.73   3 2.77
  19  0.400  0.100  0.300-   9 1.96   7 1.96   2 2.76   4 2.76   5 2.80   1 2.80
  20  0.602  0.898  0.698-   6 1.93  10 1.98   4 2.73   5 2.73   1 2.73   3 2.77
  21  0.900  0.100  0.300-   7 1.96   9 1.96   2 2.76   4 2.76   5 2.80   1 2.80
  22  0.096  0.898  0.698-   6 1.93  10 1.98   4 2.73   5 2.73   1 2.73   3 2.77
  23  0.296  0.696  0.098-   8 1.93   7 1.99   3 2.77   2 2.77   5 2.81   4 2.81
  24  0.504  0.504  0.502-   6 1.93   9 1.99   3 2.77   4 2.77   1 2.81   2 2.81
  25  0.704  0.302  0.902-   8 1.93  10 1.98   2 2.73   1 2.73   5 2.73   3 2.77
 
  LATTYP: Found a base centered monoclinic cell.
 ALAT       =    16.6172109751
 B/A-ratio  =     0.3327174996
 C/A-ratio  =     0.9711524347
 COS(beta)  =    -0.8679533285
  
  Lattice vectors:
  
 A1 = (  -3.9092690002,  -0.0002090535,  -7.8353398340)
 A2 = (   0.0002090535,   3.9092690002,  -7.8353398340)
 A3 = (   7.8207220463,  -7.8207220463,  11.7517084402)


Analysis of symmetry for initial positions (statically):
=====================================================================
 Subroutine PRICEL returns:
 Original cell was already a primitive cell.
 

 Routine SETGRP: Setting up the symmetry group for a 
 base centered monoclinic supercell.


 Subroutine GETGRP returns: Found  4 space group operations
 (whereof  2 operations were pure point group operations)
 out of a pool of  4 trial point group operations.


The static configuration has the point symmetry C_1h.
 The point group associated with its full space group is C_2h.


Analysis of symmetry for dynamics (positions and initial velocities):
=====================================================================
 Subroutine PRICEL returns:
 Original cell was already a primitive cell.
 

 Routine SETGRP: Setting up the symmetry group for a 
 base centered monoclinic supercell.


 Subroutine GETGRP returns: Found  4 space group operations
 (whereof  2 operations were pure point group operations)
 out of a pool of  4 trial point group operations.


The dynamic configuration has the point symmetry C_1h.
 The point group associated with its full space group is C_2h.


Analysis of structural, dynamic, and magnetic symmetry:
=====================================================================
 Subroutine PRICEL returns:
 Original cell was already a primitive cell.
 

 Routine SETGRP: Setting up the symmetry group for a 
 base centered monoclinic supercell.


 Subroutine GETGRP returns: Found  4 space group operations
 (whereof  2 operations were pure point group operations)
 out of a pool of  4 trial point group operations.


The magnetic configuration has the point symmetry C_1h.
 The point group associated with its full space group is C_2h.


 Subroutine INISYM returns: Found  4 space group operations
 (whereof  2 operations are pure point group operations),
 and found     1 'primitive' translations

 
 
 KPOINTS: Automatic mesh                          

Automatic generation of k-mesh.
 generate k-points for:    4    3    3
Space group operators:
 irot       det(A)        alpha          n_x          n_y          n_z        tau_x        tau_y        tau_z
    1     1.000000     0.000001     1.000000     0.000000     0.000000     0.000000     0.000000     0.000000
    2    -1.000000   180.000000     0.707107     0.707107    -0.000000     0.000000     0.000000     0.000000
    3    -1.000000     0.000001     1.000000     0.000000     0.000000    -0.200000    -0.800000    -0.400000
    4     1.000000   180.000000     0.707107     0.707107    -0.000000    -0.200000    -0.800000    -0.400000
 
 Subroutine IBZKPT returns following result:
 ===========================================
 
 Found     19 irreducible k-points:
 
 Following reciprocal coordinates:
            Coordinates               Weight
  0.000000  0.000000  0.000000      1.000000
  0.250000  0.000000  0.000000      2.000000
  0.500000  0.000000  0.000000      1.000000
  0.000000  0.333333  0.000000      2.000000
  0.250000  0.333333  0.000000      2.000000
  0.500000  0.333333  0.000000      2.000000
 -0.250000  0.333333  0.000000      2.000000
  0.000000  0.000000  0.333333      2.000000
  0.250000  0.000000  0.333333      2.000000
  0.500000 -0.000000  0.333333      2.000000
 -0.250000  0.000000  0.333333      2.000000
  0.000000  0.333333  0.333333      2.000000
  0.250000  0.333333  0.333333      2.000000
  0.500000  0.333333  0.333333      2.000000
 -0.250000  0.333333  0.333333      2.000000
  0.000000 -0.333333  0.333333      2.000000
  0.250000 -0.333333  0.333333      2.000000
  0.500000 -0.333333  0.333333      2.000000
 -0.250000 -0.333333  0.333333      2.000000
 
 Following cartesian coordinates:
            Coordinates               Weight
  0.000000  0.000000  0.000000      1.000000
 -0.038367 -0.025580 -0.012764      2.000000
 -0.076735 -0.051160 -0.025527      1.000000
 -0.034088  0.034088  0.017007      2.000000
 -0.072456  0.008508  0.004243      2.000000
 -0.110823 -0.017071 -0.008520      2.000000
  0.004279  0.059668  0.029770      2.000000
 -0.017050  0.017050 -0.034036      2.000000
 -0.055417 -0.008530 -0.046800      2.000000
 -0.093784 -0.034110 -0.059563      2.000000
  0.021317  0.042630 -0.021273      2.000000
 -0.051138  0.051138 -0.017029      2.000000
 -0.089506  0.025558 -0.029793      2.000000
 -0.127873 -0.000022 -0.042556      2.000000
 -0.012771  0.076718 -0.004266      2.000000
  0.017039 -0.017039 -0.051043      2.000000
 -0.021329 -0.042618 -0.063806      2.000000
 -0.059696 -0.068198 -0.076570      2.000000
  0.055406  0.008541 -0.038279      2.000000
 
 TETIRR: Found    106 inequivalent tetrahedra from      216


--------------------------------------------------------------------------------------------------------




 Dimension of arrays:
   k-points           NKPTS =     19   k-points in BZ     NKDIM =     19   number of bands    NBANDS=    120
   number of dos      NEDOS =    301   number of ions     NIONS =     25
   non local maximal  LDIM  =      8   non local SUM 2l+1 LMDIM =     32
   total plane-waves  NPLWV = 147000
   max r-space proj   IRMAX =   8907   max aug-charges    IRDMAX=  25840
   dimension x,y,z NGX =    42 NGY =   50 NGZ =   70
   dimension x,y,z NGXF=    84 NGYF=  100 NGZF=  140
   support grid    NGXF=    84 NGYF=  100 NGZF=  140
   ions per type =               5   4   1  15
   NGX,Y,Z   is equivalent  to a cutoff of  12.63, 12.26, 13.29 a.u.
   NGXF,Y,Z  is equivalent  to a cutoff of  25.26, 24.52, 26.58 a.u.

 SYSTEM =  final                                   
 POSCAR =  SCEL5_5_1_1_0_3_1/0                     

 Startparameter for this run:
   NWRITE =      2    write-flag & timer
   PREC   = accura    normal or accurate (medium, high low for compatibility)
   ISTART =      0    job   : 0-new  1-cont  2-samecut
   ICHARG =      1    charge: 1-file 2-atom 10-const
   ISPIN  =      2    spin polarized calculation?
   LNONCOLLINEAR =      F non collinear calculations
   LSORBIT =      F    spin-orbit coupling
   INIWAV =      1    electr: 0-lowe 1-rand  2-diag
   LASPH  =      F    aspherical Exc in radial PAW
   METAGGA=      F    non-selfconsistent MetaGGA calc.

 Electronic Relaxation 1
   ENCUT  =  520.0 eV  38.22 Ry    6.18 a.u.  10.28 12.61 16.28*2*pi/ulx,y,z
   ENINI  =  520.0     initial cutoff
   ENAUG  =  605.4 eV  augmentation charge cutoff
   NELM   =    100;   NELMIN=  2; NELMDL= -5     # of ELM steps 
   EDIFF  = 0.1E-02   stopping-criterion for ELM
   LREAL  =      T    real-space projection
   NLSPLINE    = F    spline interpolate recip. space projectors
   LCOMPAT=      F    compatible to vasp.4.4
   GGA_COMPAT  = T    GGA compatible to vasp.4.4-vasp.4.6
   LMAXPAW     = -100 max onsite density
   LMAXMIX     =    6 max onsite mixed and CHGCAR
   VOSKOWN=      0    Vosko Wilk Nusair interpolation
   ROPT   =   -0.00025  -0.00025  -0.00025  -0.00025
 Ionic relaxation
   EDIFFG = 0.1E-01   stopping-criterion for IOM
   NSW    =      0    number of steps for IOM
   NBLOCK =      1;   KBLOCK =      1    inner block; outer block 
   IBRION =     -1    ionic relax: 0-MD 1-quasi-New 2-CG
   NFREE  =      0    steps in history (QN), initial steepest desc. (CG)
   ISIF   =      2    stress and relaxation
   IWAVPR =     10    prediction:  0-non 1-charg 2-wave 3-comb
   ISYM   =      2    0-nonsym 1-usesym 2-fastsym
   LCORR  =      T    Harris-Foulkes like correction to forces

   POTIM  = 0.5000    time-step for ionic-motion
   TEIN   =    0.0    initial temperature
   TEBEG  =    0.0;   TEEND  =   0.0 temperature during run
   SMASS  =  -3.00    Nose mass-parameter (am)
   estimated Nose-frequenzy (Omega)   =  0.10E-29 period in steps =****** mass=  -0.699E-27a.u.
   SCALEE = 1.0000    scale energy and forces
   NPACO  =    256;   APACO  = 16.0  distance and # of slots for P.C.
   PSTRESS=    0.0 pullay stress

  Mass of Ions in am
   POMASS = 138.90 54.94 58.69 16.00
  Ionic Valenz
   ZVAL   =  11.00  7.00 10.00  6.00
  Atomic Wigner-Seitz radii
   RWIGS  =  -1.00 -1.00 -1.00 -1.00
  virtual crystal weights 
   VCA    =   1.00  1.00  1.00  1.00
   NELECT =     183.0000    total number of electrons
   NUPDOWN=      -1.0000    fix difference up-down

 DOS related values:
   EMIN   =  10.00;   EMAX   =-10.00  energy-range for DOS
   EFERMI =   0.00
   ISMEAR =    -5;   SIGMA  =   0.05  broadening in eV -4-tet -1-fermi 0-gaus

 Electronic relaxation 2 (details)
   IALGO  =     68    algorithm
   LDIAG  =      T    sub-space diagonalisation (order eigenvalues)
   LSUBROT=      F    optimize rotation matrix (better conditioning)
   TURBO    =      0    0=normal 1=particle mesh
   IRESTART =      0    0=no restart 2=restart with 2 vectors
   NREBOOT  =      0    no. of reboots
   NMIN     =      0    reboot dimension
   EREF     =   0.00    reference energy to select bands
   IMIX   =      4    mixing-type and parameters
     AMIX     =   0.40;   BMIX     =  1.00
     AMIX_MAG =   1.60;   BMIX_MAG =  1.00
     AMIN     =   0.10
     WC   =   100.;   INIMIX=   1;  MIXPRE=   1;  MAXMIX= -45

 Intra band minimization:
   WEIMIN = 0.0000     energy-eigenvalue tresh-hold
   EBREAK =  0.21E-05  absolut break condition
   DEPER  =   0.30     relativ break condition  

   TIME   =   0.40     timestep for ELM

  volume/ion in A,a.u.               =      11.98        80.85
  Fermi-wavevector in a.u.,A,eV,Ry     =   1.389128  2.625071 26.254835  1.929676
  Thomas-Fermi vector in A             =   2.513188
 
 Write flags
   LWAVE        =      F    write WAVECAR
   LDOWNSAMPLE  =      F    k-point downsampling of WAVECAR
   LCHARG       =      T    write CHGCAR
   LVTOT        =      F    write LOCPOT, total local potential
   LVHAR        =      F    write LOCPOT, Hartree potential only
   LELF         =      F    write electronic localiz. function (ELF)
   LORBIT       =     11    0 simple, 1 ext, 2 COOP (PROOUT), +10 PAW based schemes


 Dipole corrections
   LMONO  =      F    monopole corrections only (constant potential shift)
   LDIPOL =      F    correct potential (dipole corrections)
   IDIPOL =      0    1-x, 2-y, 3-z, 4-all directions 
   EPSILON=  1.0000000 bulk dielectric constant

 LDA+U is selected, type is set to LDAUTYPE =  2
   angular momentum for each species LDAUL =     0    2    2    0
   U (eV)           for each species LDAUU =   0.0  3.9  6.2  0.0
   J (eV)           for each species LDAUJ =   0.0  0.0  0.0  0.0
 Exchange correlation treatment:
   GGA     =    --    GGA type
   LEXCH   =     8    internal setting for exchange type
   VOSKOWN=      0    Vosko Wilk Nusair interpolation
   LHFCALC =     F    Hartree Fock is set to
   LHFONE  =     F    Hartree Fock one center treatment
   AEXX    =    0.0000 exact exchange contribution

 Linear response parameters
   LEPSILON=     F    determine dielectric tensor
   LRPA    =     F    only Hartree local field effects (RPA)
   LNABLA  =     F    use nabla operator in PAW spheres
   LVEL    =     F    velocity operator in full k-point grid
   LINTERFAST=   F  fast interpolation
   KINTER  =     0    interpolate to denser k-point grid
   CSHIFT  =0.1000    complex shift for real part using Kramers Kronig
   OMEGAMAX=  -1.0    maximum frequency
   DEG_THRESHOLD= 0.2000000E-02 threshold for treating states as degnerate
   RTIME   =   -0.100 relaxation time in fs
  (WPLASMAI=    0.000 imaginary part of plasma frequency in eV, 0.658/RTIME)
   DFIELD  = 0.0000000 0.0000000 0.0000000 field for delta impulse in time
 
 Orbital magnetization related:
   ORBITALMAG=     F  switch on orbital magnetization
   LCHIMAG   =     F  perturbation theory with respect to B field
   DQ        =  0.001000  dq finite difference perturbation B field
   LLRAUG    =     F  two centre corrections for induced B field



--------------------------------------------------------------------------------------------------------


 Static calculation
 charge density and potential will be updated during run
 spin polarized calculation
 RMM-DIIS sequential band-by-band and
  variant of blocked Davidson during initial phase
 perform sub-space diagonalisation
    before iterative eigenvector-optimisation
 modified Broyden-mixing scheme, WC =      100.0
 initial mixing is a Kerker type mixing with AMIX =  0.4000 and BMIX =      1.0000
 Hartree-type preconditioning will be used
 using additional bands           28
 real space projection scheme for non local part
 use partial core corrections
 calculate Harris-corrections to forces 
   (improved forces if not selfconsistent)
 use gradient corrections 
 use of overlap-Matrix (Vanderbilt PP)
 Fermi weights with tetrahedron method with Bloechl corrections


--------------------------------------------------------------------------------------------------------


  energy-cutoff  :      520.00
  volume of cell :      299.54
      direct lattice vectors                 reciprocal lattice vectors
    -3.909478054 -3.909478054  0.000000000    -0.153469087 -0.102319534 -0.051054156
    -3.911662100  3.911662100  3.918971228    -0.102265138  0.102265138  0.051020194
     0.000209054  3.909269000 -7.835339834    -0.051149553  0.051149553 -0.102108313

  length of vectors
     5.528836885  6.779420053  8.756422470     0.191385931  0.153360285  0.125134572


 
 k-points in units of 2pi/SCALE and weight: Automatic mesh                          
   0.00000000  0.00000000  0.00000000       0.028
  -0.03836727 -0.02557988 -0.01276354       0.056
  -0.07673454 -0.05115977 -0.02552708       0.028
  -0.03408838  0.03408838  0.01700673       0.056
  -0.07245565  0.00850850  0.00424319       0.056
  -0.11082292 -0.01707139 -0.00852035       0.056
   0.00427889  0.05966826  0.02977027       0.056
  -0.01704985  0.01704985 -0.03403610       0.056
  -0.05541712 -0.00853003 -0.04679964       0.056
  -0.09378439 -0.03410992 -0.05956318       0.056
   0.02131742  0.04262973 -0.02127257       0.056
  -0.05113823  0.05113823 -0.01702937       0.056
  -0.08950550  0.02555835 -0.02979291       0.056
  -0.12787277 -0.00002154 -0.04255645       0.056
  -0.01277096  0.07671811 -0.00426583       0.056
   0.01703853 -0.01703853 -0.05104284       0.056
  -0.02132874 -0.04261841 -0.06380637       0.056
  -0.05969602 -0.06819830 -0.07656991       0.056
   0.05540580  0.00854136 -0.03827930       0.056
 
 k-points in reciprocal lattice and weights: Automatic mesh                          
   0.00000000  0.00000000  0.00000000       0.028
   0.25000000  0.00000000  0.00000000       0.056
   0.50000000  0.00000000  0.00000000       0.028
   0.00000000  0.33333333  0.00000000       0.056
   0.25000000  0.33333333  0.00000000       0.056
   0.50000000  0.33333333  0.00000000       0.056
  -0.25000000  0.33333333  0.00000000       0.056
   0.00000000  0.00000000  0.33333333       0.056
   0.25000000  0.00000000  0.33333333       0.056
   0.50000000 -0.00000000  0.33333333       0.056
  -0.25000000  0.00000000  0.33333333       0.056
   0.00000000  0.33333333  0.33333333       0.056
   0.25000000  0.33333333  0.33333333       0.056
   0.50000000  0.33333333  0.33333333       0.056
  -0.25000000  0.33333333  0.33333333       0.056
   0.00000000 -0.33333333  0.33333333       0.056
   0.25000000 -0.33333333  0.33333333       0.056
   0.50000000 -0.33333333  0.33333333       0.056
  -0.25000000 -0.33333333  0.33333333       0.056
 
 position of ions in fractional coordinates (direct lattice) 
   0.80270049  0.19815954  0.60540097
   0.59721304  0.39516331  0.19442608
   0.40000000  0.60000000  0.80000000
   0.20278696  0.80483669  0.40557392
   0.99729951  0.00184046  0.99459903
   0.79977522  0.70077886  0.59955045
   0.59937382  0.90002509  0.19874764
   0.00022478  0.49922114  0.00044955
   0.20062618  0.29997491  0.40125236
   0.40000000  0.10000000  0.80000000
   0.69792612  0.80214888  0.39585223
   0.90000000  0.60000000  0.80000000
   0.10207388  0.39785112  0.20414777
   0.29900466  0.20098732  0.59800933
   0.50099534  0.99901268  0.00199067
   0.80261421  0.69605559  0.09832113
   0.99738579  0.50394441  0.50167887
   0.19767174  0.30220324  0.90156393
   0.40000000  0.10000000  0.30000000
   0.60232826  0.89779676  0.69843607
   0.90000000  0.10000000  0.30000000
   0.09610782  0.89779676  0.69843607
   0.29570692  0.69605559  0.09832113
   0.50429308  0.50394441  0.50167887
   0.70389218  0.30220324  0.90156393
 
 position of ions in cartesian coordinates  (Angst):
  -3.91314653  0.00366847 -3.96694082
  -3.88049597 -0.02898208  0.02523920
  -3.91062124  3.91062124 -3.91688913
  -3.94095556  3.94095556 -0.02367762
  -3.90591190 -0.00356615 -7.78580867
  -5.86778845  1.95831040 -1.95134934
  -5.86379128  1.95431322  1.96991715
  -1.95366308  1.95366308  1.95291092
  -1.95766025  1.95766025 -1.96835558
  -1.95479019  1.95479019 -5.87637474
  -5.86617946  1.95670140  0.04196163
  -5.86536027  1.95588221 -3.91688913
  -1.95527207  1.95527207 -0.04040006
  -1.95502164  1.95502164 -3.89794276
  -5.86642989  1.95695184  3.89950434
  -5.86051637 -0.03070463  1.95744236
  -5.87041321  0.03320006 -1.95588079
  -1.95472181  3.93377951 -5.87973395
  -1.95489472  0.00015569 -1.95870483
  -5.86652067  3.88746296 -1.95404431
  -3.90963374 -1.95458334 -1.95870483
  -3.88746296  5.86652067 -1.95404431
  -3.87877342  1.95103832  1.95744236
  -3.94267811  1.96093516 -1.95588079
  -3.93377951  1.95472181 -5.87973395
 


--------------------------------------------------------------------------------------------------------


 k-point  1 :   0.0000 0.0000 0.0000  plane waves:    8027
 k-point  2 :   0.2500 0.0000 0.0000  plane waves:    8067
 k-point  3 :   0.5000 0.0000 0.0000  plane waves:    8074
 k-point  4 :   0.0000 0.3333 0.0000  plane waves:    8067
 k-point  5 :   0.2500 0.3333 0.0000  plane waves:    8068
 k-point  6 :   0.5000 0.3333 0.0000  plane waves:    8063
 k-point  7 :  -0.2500 0.3333 0.0000  plane waves:    8054
 k-point  8 :   0.0000 0.0000 0.3333  plane waves:    8091
 k-point  9 :   0.2500 0.0000 0.3333  plane waves:    8052
 k-point 10 :   0.5000-0.0000 0.3333  plane waves:    8073
 k-point 11 :  -0.2500 0.0000 0.3333  plane waves:    8067
 k-point 12 :   0.0000 0.3333 0.3333  plane waves:    8062
 k-point 13 :   0.2500 0.3333 0.3333  plane waves:    8064
 k-point 14 :   0.5000 0.3333 0.3333  plane waves:    8060
 k-point 15 :  -0.2500 0.3333 0.3333  plane waves:    8048
 k-point 16 :   0.0000-0.3333 0.3333  plane waves:    8068
 k-point 17 :   0.2500-0.3333 0.3333  plane waves:    8050
 k-point 18 :   0.5000-0.3333 0.3333  plane waves:    8053
 k-point 19 :  -0.2500-0.3333 0.3333  plane waves:    8063

 maximum and minimum number of plane-waves per node :       829      779

 maximum number of plane-waves:      8091
 maximum index in each direction: 
   IXMAX=   10   IYMAX=   12   IZMAX=   16
   IXMIN=  -10   IYMIN=  -12   IZMIN=  -16


 real space projection operators:
  total allocation   :      18427.86 KBytes
  max/ min on nodes  :       2196.56       1729.69


 parallel 3D FFT for wavefunctions:
    minimum data exchange during FFTs selected (reduces bandwidth)
 parallel 3D FFT for charge:
    minimum data exchange during FFTs selected (reduces bandwidth)


 total amount of memory used by VASP MPI-rank0    79834. kBytes
=======================================================================

   base      :      30000. kBytes
   nonlr-proj:       6485. kBytes
   fftplans  :       2818. kBytes
   grid      :       8208. kBytes
   one-center:        294. kBytes
   wavefun   :      32029. kBytes
 
     INWAV:  cpu time    0.0000: real time    0.0001
 Broyden mixing: mesh for mixing (old mesh)
   NGX = 21   NGY = 25   NGZ = 33
  (NGX  = 84   NGY  =100   NGZ  =140)
  gives a total of  17325 points

 initial charge density was supplied:
 charge density of overlapping atoms calculated
 number of electron     183.0000000 magnetization      19.0000000
 keeping initial charge density in first step


--------------------------------------------------------------------------------------------------------


 Maximum index for non-local projection operator         1262
 Maximum index for augmentation-charges         1986 (set IRDMAX)


--------------------------------------------------------------------------------------------------------


 First call to EWALD:  gamma=   0.265
 Maximum number of real-space cells 3x 3x 2
 Maximum number of reciprocal cells 2x 3x 3

    FEWALD:  cpu time    0.0017: real time    0.0017


--------------------------------------- Iteration      1(   1)  ---------------------------------------


    POTLOK:  cpu time    0.0781: real time    0.0791
    SETDIJ:  cpu time    0.0134: real time    0.0134
atom =   1  type =  1  l = 0
 
 onsite density matrix
 
spin component  1
 
  1.0989
 
spin component  2
 
  1.0989
 
 occupancies and eigenvectors
 
  o =  1.0989  v =  1.0000  0.0000      0.0000  0.0000
  o =  1.0989  v =  0.0000  1.0000      0.0000  0.0000
atom =   2  type =  1  l = 0
 
 onsite density matrix
 
spin component  1
 
  1.0989
 
spin component  2
 
  1.0989
 
 occupancies and eigenvectors
 
  o =  1.0989  v =  1.0000  0.0000      0.0000  0.0000
  o =  1.0989  v =  0.0000  1.0000      0.0000  0.0000
atom =   3  type =  1  l = 0
 
 onsite density matrix
 
spin component  1
 
  1.0989
 
spin component  2
 
  1.0989
 
 occupancies and eigenvectors
 
  o =  1.0989  v =  1.0000  0.0000      0.0000  0.0000
  o =  1.0989  v =  0.0000  1.0000      0.0000  0.0000
atom =   4  type =  1  l = 0
 
 onsite density matrix
 
spin component  1
 
  1.0989
 
spin component  2
 
  1.0989
 
 occupancies and eigenvectors
 
  o =  1.0989  v =  1.0000  0.0000      0.0000  0.0000
  o =  1.0989  v =  0.0000  1.0000      0.0000  0.0000
atom =   5  type =  1  l = 0
 
 onsite density matrix
 
spin component  1
 
  1.0989
 
spin component  2
 
  1.0989
 
 occupancies and eigenvectors
 
  o =  1.0989  v =  1.0000  0.0000      0.0000  0.0000
  o =  1.0989  v =  0.0000  1.0000      0.0000  0.0000
atom =   6  type =  2  l = 2
 
 onsite density matrix
 
spin component  1
 
  0.8272  0.0000  0.0000  0.0000  0.0000
  0.0000  0.8272  0.0000  0.0000  0.0000
  0.0000  0.0000  0.8272  0.0000  0.0000
  0.0000  0.0000  0.0000  0.8272  0.0000
  0.0000  0.0000  0.0000  0.0000  0.8272
 
spin component  2
 
  0.2256  0.0000  0.0000  0.0000  0.0000
  0.0000  0.2256  0.0000  0.0000  0.0000
  0.0000  0.0000  0.2256  0.0000  0.0000
  0.0000  0.0000  0.0000  0.2256  0.0000
  0.0000  0.0000  0.0000  0.0000  0.2256
 
 occupancies and eigenvectors
 
  o =  0.2256  v =  0.0000  0.0000  0.0000  0.0000  0.0000  0.0000  0.0000  1.0000  0.0000  0.0000      0.0000  0.0000  0.0000  0.0000  0.0000  0.0000  0.0000  0.0000  0.0000  0.0000
  o =  0.2256  v =  0.0000  0.0000  0.0000  0.0000  0.0000  1.0000  0.0000  0.0000  0.0000  0.0000      0.0000  0.0000  0.0000  0.0000  0.0000  0.0000  0.0000  0.0000  0.0000  0.0000
  o =  0.2256  v =  0.0000  0.0000  0.0000  0.0000  0.0000  0.0000  1.0000  0.0000  0.0000  0.0000      0.0000  0.0000  0.0000  0.0000  0.0000  0.0000  0.0000  0.0000  0.0000  0.0000
  o =  0.2256  v =  0.0000  0.0000  0.0000  0.0000  0.0000  0.0000  0.0000  0.0000  1.0000  0.0000      0.0000  0.0000  0.0000  0.0000  0.0000  0.0000  0.0000  0.0000  0.0000  0.0000
  o =  0.2256  v =  0.0000  0.0000  0.0000  0.0000  0.0000  0.0000  0.0000  0.0000  0.0000  1.0000      0.0000  0.0000  0.0000  0.0000  0.0000  0.0000  0.0000  0.0000  0.0000  0.0000
  o =  0.8272  v =  0.0000  1.0000  0.0000  0.0000  0.0000  0.0000  0.0000  0.0000  0.0000  0.0000      0.0000  0.0000  0.0000  0.0000  0.0000  0.0000  0.0000  0.0000  0.0000  0.0000
  o =  0.8272  v =  0.0000  0.0000  1.0000  0.0000  0.0000  0.0000  0.0000  0.0000  0.0000  0.0000      0.0000  0.0000  0.0000  0.0000  0.0000  0.0000  0.0000  0.0000  0.0000  0.0000
  o =  0.8272  v =  1.0000  0.0000  0.0000  0.0000  0.0000  0.0000  0.0000  0.0000  0.0000  0.0000      0.0000  0.0000  0.0000  0.0000  0.0000  0.0000  0.0000  0.0000  0.0000  0.0000
  o =  0.8272  v =  0.0000  0.0000  0.0000  1.0000  0.0000  0.0000  0.0000  0.0000  0.0000  0.0000      0.0000  0.0000  0.0000  0.0000  0.0000  0.0000  0.0000  0.0000  0.0000  0.0000
  o =  0.8272  v =  0.0000  0.0000  0.0000  0.0000  1.0000  0.0000  0.0000  0.0000  0.0000  0.0000      0.0000  0.0000  0.0000  0.0000  0.0000  0.0000  0.0000  0.0000  0.0000  0.0000
atom =   7  type =  2  l = 2
 
 onsite density matrix
 
spin component  1
 
  0.8272  0.0000  0.0000  0.0000  0.0000
  0.0000  0.8272  0.0000  0.0000  0.0000
  0.0000  0.0000  0.8272  0.0000  0.0000
  0.0000  0.0000  0.0000  0.8272  0.0000
  0.0000  0.0000  0.0000  0.0000  0.8272
 
spin component  2
 
  0.2256  0.0000  0.0000  0.0000  0.0000
  0.0000  0.2256  0.0000  0.0000  0.0000
  0.0000  0.0000  0.2256  0.0000  0.0000
  0.0000  0.0000  0.0000  0.2256  0.0000
  0.0000  0.0000  0.0000  0.0000  0.2256
 
 occupancies and eigenvectors
 
  o =  0.2256  v =  0.0000  0.0000  0.0000  0.0000  0.0000  0.0000  0.0000  1.0000  0.0000  0.0000      0.0000  0.0000  0.0000  0.0000  0.0000  0.0000  0.0000  0.0000  0.0000  0.0000
  o =  0.2256  v =  0.0000  0.0000  0.0000  0.0000  0.0000  1.0000  0.0000  0.0000  0.0000  0.0000      0.0000  0.0000  0.0000  0.0000  0.0000  0.0000  0.0000  0.0000  0.0000  0.0000
  o =  0.2256  v =  0.0000  0.0000  0.0000  0.0000  0.0000  0.0000  1.0000  0.0000  0.0000  0.0000      0.0000  0.0000  0.0000  0.0000  0.0000  0.0000  0.0000  0.0000  0.0000  0.0000
  o =  0.2256  v =  0.0000  0.0000  0.0000  0.0000  0.0000  0.0000  0.0000  0.0000  1.0000  0.0000      0.0000  0.0000  0.0000  0.0000  0.0000  0.0000  0.0000  0.0000  0.0000  0.0000
  o =  0.2256  v =  0.0000  0.0000  0.0000  0.0000  0.0000  0.0000  0.0000  0.0000  0.0000  1.0000      0.0000  0.0000  0.0000  0.0000  0.0000  0.0000  0.0000  0.0000  0.0000  0.0000
  o =  0.8272  v =  0.0000  1.0000  0.0000  0.0000  0.0000  0.0000  0.0000  0.0000  0.0000  0.0000      0.0000  0.0000  0.0000  0.0000  0.0000  0.0000  0.0000  0.0000  0.0000  0.0000
  o =  0.8272  v =  0.0000  0.0000  1.0000  0.0000  0.0000  0.0000  0.0000  0.0000  0.0000  0.0000      0.0000  0.0000  0.0000  0.0000  0.0000  0.0000  0.0000  0.0000  0.0000  0.0000
  o =  0.8272  v =  1.0000  0.0000  0.0000  0.0000  0.0000  0.0000  0.0000  0.0000  0.0000  0.0000      0.0000  0.0000  0.0000  0.0000  0.0000  0.0000  0.0000  0.0000  0.0000  0.0000
  o =  0.8272  v =  0.0000  0.0000  0.0000  1.0000  0.0000  0.0000  0.0000  0.0000  0.0000  0.0000      0.0000  0.0000  0.0000  0.0000  0.0000  0.0000  0.0000  0.0000  0.0000  0.0000
  o =  0.8272  v =  0.0000  0.0000  0.0000  0.0000  1.0000  0.0000  0.0000  0.0000  0.0000  0.0000      0.0000  0.0000  0.0000  0.0000  0.0000  0.0000  0.0000  0.0000  0.0000  0.0000
atom =   8  type =  2  l = 2
 
 onsite density matrix
 
spin component  1
 
  0.8272  0.0000  0.0000  0.0000  0.0000
  0.0000  0.8272  0.0000  0.0000  0.0000
  0.0000  0.0000  0.8272  0.0000  0.0000
  0.0000  0.0000  0.0000  0.8272  0.0000
  0.0000  0.0000  0.0000  0.0000  0.8272
 
spin component  2
 
  0.2256  0.0000  0.0000  0.0000  0.0000
  0.0000  0.2256  0.0000  0.0000  0.0000
  0.0000  0.0000  0.2256  0.0000  0.0000
  0.0000  0.0000  0.0000  0.2256  0.0000
  0.0000  0.0000  0.0000  0.0000  0.2256
 
 occupancies and eigenvectors
 
  o =  0.2256  v =  0.0000  0.0000  0.0000  0.0000  0.0000  0.0000  0.0000  1.0000  0.0000  0.0000      0.0000  0.0000  0.0000  0.0000  0.0000  0.0000  0.0000  0.0000  0.0000  0.0000
  o =  0.2256  v =  0.0000  0.0000  0.0000  0.0000  0.0000  1.0000  0.0000  0.0000  0.0000  0.0000      0.0000  0.0000  0.0000  0.0000  0.0000  0.0000  0.0000  0.0000  0.0000  0.0000
  o =  0.2256  v =  0.0000  0.0000  0.0000  0.0000  0.0000  0.0000  1.0000  0.0000  0.0000  0.0000      0.0000  0.0000  0.0000  0.0000  0.0000  0.0000  0.0000  0.0000  0.0000  0.0000
  o =  0.2256  v =  0.0000  0.0000  0.0000  0.0000  0.0000  0.0000  0.0000  0.0000  1.0000  0.0000      0.0000  0.0000  0.0000  0.0000  0.0000  0.0000  0.0000  0.0000  0.0000  0.0000
  o =  0.2256  v =  0.0000  0.0000  0.0000  0.0000  0.0000  0.0000  0.0000  0.0000  0.0000  1.0000      0.0000  0.0000  0.0000  0.0000  0.0000  0.0000  0.0000  0.0000  0.0000  0.0000
  o =  0.8272  v =  0.0000  1.0000  0.0000  0.0000  0.0000  0.0000  0.0000  0.0000  0.0000  0.0000      0.0000  0.0000  0.0000  0.0000  0.0000  0.0000  0.0000  0.0000  0.0000  0.0000
  o =  0.8272  v =  0.0000  0.0000  1.0000  0.0000  0.0000  0.0000  0.0000  0.0000  0.0000  0.0000      0.0000  0.0000  0.0000  0.0000  0.0000  0.0000  0.0000  0.0000  0.0000  0.0000
  o =  0.8272  v =  1.0000  0.0000  0.0000  0.0000  0.0000  0.0000  0.0000  0.0000  0.0000  0.0000      0.0000  0.0000  0.0000  0.0000  0.0000  0.0000  0.0000  0.0000  0.0000  0.0000
  o =  0.8272  v =  0.0000  0.0000  0.0000  1.0000  0.0000  0.0000  0.0000  0.0000  0.0000  0.0000      0.0000  0.0000  0.0000  0.0000  0.0000  0.0000  0.0000  0.0000  0.0000  0.0000
  o =  0.8272  v =  0.0000  0.0000  0.0000  0.0000  1.0000  0.0000  0.0000  0.0000  0.0000  0.0000      0.0000  0.0000  0.0000  0.0000  0.0000  0.0000  0.0000  0.0000  0.0000  0.0000
atom =   9  type =  2  l = 2
 
 onsite density matrix
 
spin component  1
 
  0.8272  0.0000  0.0000  0.0000  0.0000
  0.0000  0.8272  0.0000  0.0000  0.0000
  0.0000  0.0000  0.8272  0.0000  0.0000
  0.0000  0.0000  0.0000  0.8272  0.0000
  0.0000  0.0000  0.0000  0.0000  0.8272
 
spin component  2
 
  0.2256  0.0000  0.0000  0.0000  0.0000
  0.0000  0.2256  0.0000  0.0000  0.0000
  0.0000  0.0000  0.2256  0.0000  0.0000
  0.0000  0.0000  0.0000  0.2256  0.0000
  0.0000  0.0000  0.0000  0.0000  0.2256
 
 occupancies and eigenvectors
 
  o =  0.2256  v =  0.0000  0.0000  0.0000  0.0000  0.0000  0.0000  0.0000  1.0000  0.0000  0.0000      0.0000  0.0000  0.0000  0.0000  0.0000  0.0000  0.0000  0.0000  0.0000  0.0000
  o =  0.2256  v =  0.0000  0.0000  0.0000  0.0000  0.0000  1.0000  0.0000  0.0000  0.0000  0.0000      0.0000  0.0000  0.0000  0.0000  0.0000  0.0000  0.0000  0.0000  0.0000  0.0000
  o =  0.2256  v =  0.0000  0.0000  0.0000  0.0000  0.0000  0.0000  1.0000  0.0000  0.0000  0.0000      0.0000  0.0000  0.0000  0.0000  0.0000  0.0000  0.0000  0.0000  0.0000  0.0000
  o =  0.2256  v =  0.0000  0.0000  0.0000  0.0000  0.0000  0.0000  0.0000  0.0000  1.0000  0.0000      0.0000  0.0000  0.0000  0.0000  0.0000  0.0000  0.0000  0.0000  0.0000  0.0000
  o =  0.2256  v =  0.0000  0.0000  0.0000  0.0000  0.0000  0.0000  0.0000  0.0000  0.0000  1.0000      0.0000  0.0000  0.0000  0.0000  0.0000  0.0000  0.0000  0.0000  0.0000  0.0000
  o =  0.8272  v =  0.0000  1.0000  0.0000  0.0000  0.0000  0.0000  0.0000  0.0000  0.0000  0.0000      0.0000  0.0000  0.0000  0.0000  0.0000  0.0000  0.0000  0.0000  0.0000  0.0000
  o =  0.8272  v =  0.0000  0.0000  1.0000  0.0000  0.0000  0.0000  0.0000  0.0000  0.0000  0.0000      0.0000  0.0000  0.0000  0.0000  0.0000  0.0000  0.0000  0.0000  0.0000  0.0000
  o =  0.8272  v =  1.0000  0.0000  0.0000  0.0000  0.0000  0.0000  0.0000  0.0000  0.0000  0.0000      0.0000  0.0000  0.0000  0.0000  0.0000  0.0000  0.0000  0.0000  0.0000  0.0000
  o =  0.8272  v =  0.0000  0.0000  0.0000  1.0000  0.0000  0.0000  0.0000  0.0000  0.0000  0.0000      0.0000  0.0000  0.0000  0.0000  0.0000  0.0000  0.0000  0.0000  0.0000  0.0000
  o =  0.8272  v =  0.0000  0.0000  0.0000  0.0000  1.0000  0.0000  0.0000  0.0000  0.0000  0.0000      0.0000  0.0000  0.0000  0.0000  0.0000  0.0000  0.0000  0.0000  0.0000  0.0000
atom =  10  type =  3  l = 2
 
 onsite density matrix
 
spin component  1
 
  1.1008  0.0000  0.0000  0.0000  0.0000
  0.0000  1.1008  0.0000  0.0000  0.0000
  0.0000  0.0000  1.1008  0.0000  0.0000
  0.0000  0.0000  0.0000  1.1008  0.0000
  0.0000  0.0000  0.0000  0.0000  1.1008
 
spin component  2
 
  0.5927  0.0000  0.0000  0.0000  0.0000
  0.0000  0.5927  0.0000  0.0000  0.0000
  0.0000  0.0000  0.5927  0.0000  0.0000
  0.0000  0.0000  0.0000  0.5927  0.0000
  0.0000  0.0000  0.0000  0.0000  0.5927
 
 occupancies and eigenvectors
 
  o =  0.5927  v =  0.0000  0.0000  0.0000  0.0000  0.0000  1.0000  0.0000  0.0000  0.0000  0.0000      0.0000  0.0000  0.0000  0.0000  0.0000  0.0000  0.0000  0.0000  0.0000  0.0000
  o =  0.5927  v =  0.0000  0.0000  0.0000  0.0000  0.0000  0.0000  1.0000  0.0000  0.0000  0.0000      0.0000  0.0000  0.0000  0.0000  0.0000  0.0000  0.0000  0.0000  0.0000  0.0000
  o =  0.5927  v =  0.0000  0.0000  0.0000  0.0000  0.0000  0.0000  0.0000  1.0000  0.0000  0.0000      0.0000  0.0000  0.0000  0.0000  0.0000  0.0000  0.0000  0.0000  0.0000  0.0000
  o =  0.5927  v =  0.0000  0.0000  0.0000  0.0000  0.0000  0.0000  0.0000  0.0000  1.0000  0.0000      0.0000  0.0000  0.0000  0.0000  0.0000  0.0000  0.0000  0.0000  0.0000  0.0000
  o =  0.5927  v =  0.0000  0.0000  0.0000  0.0000  0.0000  0.0000  0.0000  0.0000  0.0000  1.0000      0.0000  0.0000  0.0000  0.0000  0.0000  0.0000  0.0000  0.0000  0.0000  0.0000
  o =  1.1008  v =  1.0000  0.0000  0.0000  0.0000  0.0000  0.0000  0.0000  0.0000  0.0000  0.0000      0.0000  0.0000  0.0000  0.0000  0.0000  0.0000  0.0000  0.0000  0.0000  0.0000
  o =  1.1008  v =  0.0000  1.0000  0.0000  0.0000  0.0000  0.0000  0.0000  0.0000  0.0000  0.0000      0.0000  0.0000  0.0000  0.0000  0.0000  0.0000  0.0000  0.0000  0.0000  0.0000
  o =  1.1008  v =  0.0000  0.0000  1.0000  0.0000  0.0000  0.0000  0.0000  0.0000  0.0000  0.0000      0.0000  0.0000  0.0000  0.0000  0.0000  0.0000  0.0000  0.0000  0.0000  0.0000
  o =  1.1008  v =  0.0000  0.0000  0.0000  1.0000  0.0000  0.0000  0.0000  0.0000  0.0000  0.0000      0.0000  0.0000  0.0000  0.0000  0.0000  0.0000  0.0000  0.0000  0.0000  0.0000
  o =  1.1008  v =  0.0000  0.0000  0.0000  0.0000  1.0000  0.0000  0.0000  0.0000  0.0000  0.0000      0.0000  0.0000  0.0000  0.0000  0.0000  0.0000  0.0000  0.0000  0.0000  0.0000
atom =  11  type =  4  l = 0
 
 onsite density matrix
 
spin component  1
 
  0.8190
 
spin component  2
 
  0.8190
 
 occupancies and eigenvectors
 
  o =  0.8190  v =  1.0000  0.0000      0.0000  0.0000
  o =  0.8190  v =  0.0000  1.0000      0.0000  0.0000
atom =  12  type =  4  l = 0
 
 onsite density matrix
 
spin component  1
 
  0.8190
 
spin component  2
 
  0.8190
 
 occupancies and eigenvectors
 
  o =  0.8190  v =  1.0000  0.0000      0.0000  0.0000
  o =  0.8190  v =  0.0000  1.0000      0.0000  0.0000
atom =  13  type =  4  l = 0
 
 onsite density matrix
 
spin component  1
 
  0.8190
 
spin component  2
 
  0.8190
 
 occupancies and eigenvectors
 
  o =  0.8190  v =  1.0000  0.0000      0.0000  0.0000
  o =  0.8190  v =  0.0000  1.0000      0.0000  0.0000
atom =  14  type =  4  l = 0
 
 onsite density matrix
 
spin component  1
 
  0.8190
 
spin component  2
 
  0.8190
 
 occupancies and eigenvectors
 
  o =  0.8190  v =  1.0000  0.0000      0.0000  0.0000
  o =  0.8190  v =  0.0000  1.0000      0.0000  0.0000
atom =  15  type =  4  l = 0
 
 onsite density matrix
 
spin component  1
 
  0.8190
 
spin component  2
 
  0.8190
 
 occupancies and eigenvectors
 
  o =  0.8190  v =  1.0000  0.0000      0.0000  0.0000
  o =  0.8190  v =  0.0000  1.0000      0.0000  0.0000
atom =  16  type =  4  l = 0
 
 onsite density matrix
 
spin component  1
 
  0.8190
 
spin component  2
 
  0.8190
 
 occupancies and eigenvectors
 
  o =  0.8190  v =  1.0000  0.0000      0.0000  0.0000
  o =  0.8190  v =  0.0000  1.0000      0.0000  0.0000
atom =  17  type =  4  l = 0
 
 onsite density matrix
 
spin component  1
 
  0.8190
 
spin component  2
 
  0.8190
 
 occupancies and eigenvectors
 
  o =  0.8190  v =  1.0000  0.0000      0.0000  0.0000
  o =  0.8190  v =  0.0000  1.0000      0.0000  0.0000
atom =  18  type =  4  l = 0
 
 onsite density matrix
 
spin component  1
 
  0.8190
 
spin component  2
 
  0.8190
 
 occupancies and eigenvectors
 
  o =  0.8190  v =  1.0000  0.0000      0.0000  0.0000
  o =  0.8190  v =  0.0000  1.0000      0.0000  0.0000
atom =  19  type =  4  l = 0
 
 onsite density matrix
 
spin component  1
 
  0.8190
 
spin component  2
 
  0.8190
 
 occupancies and eigenvectors
 
  o =  0.8190  v =  1.0000  0.0000      0.0000  0.0000
  o =  0.8190  v =  0.0000  1.0000      0.0000  0.0000
atom =  20  type =  4  l = 0
 
 onsite density matrix
 
spin component  1
 
  0.8190
 
spin component  2
 
  0.8190
 
 occupancies and eigenvectors
 
  o =  0.8190  v =  1.0000  0.0000      0.0000  0.0000
  o =  0.8190  v =  0.0000  1.0000      0.0000  0.0000
atom =  21  type =  4  l = 0
 
 onsite density matrix
 
spin component  1
 
  0.8190
 
spin component  2
 
  0.8190
 
 occupancies and eigenvectors
 
  o =  0.8190  v =  1.0000  0.0000      0.0000  0.0000
  o =  0.8190  v =  0.0000  1.0000      0.0000  0.0000
atom =  22  type =  4  l = 0
 
 onsite density matrix
 
spin component  1
 
  0.8190
 
spin component  2
 
  0.8190
 
 occupancies and eigenvectors
 
  o =  0.8190  v =  1.0000  0.0000      0.0000  0.0000
  o =  0.8190  v =  0.0000  1.0000      0.0000  0.0000
atom =  23  type =  4  l = 0
 
 onsite density matrix
 
spin component  1
 
  0.8190
 
spin component  2
 
  0.8190
 
 occupancies and eigenvectors
 
  o =  0.8190  v =  1.0000  0.0000      0.0000  0.0000
  o =  0.8190  v =  0.0000  1.0000      0.0000  0.0000
atom =  24  type =  4  l = 0
 
 onsite density matrix
 
spin component  1
 
  0.8190
 
spin component  2
 
  0.8190
 
 occupancies and eigenvectors
 
  o =  0.8190  v =  1.0000  0.0000      0.0000  0.0000
  o =  0.8190  v =  0.0000  1.0000      0.0000  0.0000
atom =  25  type =  4  l = 0
 
 onsite density matrix
 
spin component  1
 
  0.8190
 
spin component  2
 
  0.8190
 
 occupancies and eigenvectors
 
  o =  0.8190  v =  1.0000  0.0000      0.0000  0.0000
  o =  0.8190  v =  0.0000  1.0000      0.0000  0.0000
     EDDAV:  cpu time    5.1919: real time    5.2232
 BZINTS: Fermi energy: 29.923603;183.000000 electrons
         Band energy:2659.358269;  BLOECHL correction: -0.175802
       DOS:  cpu time    0.0401: real time    0.0423
    --------------------------------------------
      LOOP:  cpu time    5.3235: real time    5.3581

 eigenvalue-minimisations  :  9784
 total energy-change (2. order) : 0.2899936E+04  (-0.6446625E+04)
 number of electron     183.0000000 magnetization      19.0000000
 augmentation part      183.0000000 magnetization      19.0000000

 Free energy of the ion-electron system (eV)
  ---------------------------------------------------
  alpha Z        PSCENC =       806.94006873
  Ewald energy   TEWEN  =    -12255.22264901
  -Hartree energ DENC   =     -2456.07304470
  -exchange      EXHF   =         0.00000000
  -V(xc)+E(xc)   XCENC  =       563.14131316
  PAW double counting   =     10999.04824198   -10977.18021641
  entropy T*S    EENTRO =         0.00000000
  eigenvalues    EBANDS =      2659.35826893
  atomic energy  EATOM  =     13559.92437808
  Solvation  Ediel_sol  =         0.00000000
  ---------------------------------------------------
  free energy    TOTEN  =      2899.93636076 eV

  energy without entropy =     2899.93636076  energy(sigma->0) =     2899.93636076


--------------------------------------------------------------------------------------------------------




--------------------------------------- Iteration      1(   2)  ---------------------------------------


     EDDAV:  cpu time    5.3542: real time    5.3813
 BZINTS: Fermi energy: 15.966492;183.000000 electrons
         Band energy: 730.868039;  BLOECHL correction: -0.056335
       DOS:  cpu time    0.0424: real time    0.0425
    --------------------------------------------
      LOOP:  cpu time    5.3966: real time    5.4238

 eigenvalue-minimisations  : 10264
 total energy-change (2. order) :-0.1928490E+04  (-0.1730681E+04)
 number of electron     183.0000000 magnetization      19.0000000
 augmentation part      183.0000000 magnetization      19.0000000

 Free energy of the ion-electron system (eV)
  ---------------------------------------------------
  alpha Z        PSCENC =       806.94006873
  Ewald energy   TEWEN  =    -12255.22264901
  -Hartree energ DENC   =     -2456.07304470
  -exchange      EXHF   =         0.00000000
  -V(xc)+E(xc)   XCENC  =       563.14131316
  PAW double counting   =     10999.04824198   -10977.18021641
  entropy T*S    EENTRO =         0.00000000
  eigenvalues    EBANDS =       730.86803882
  atomic energy  EATOM  =     13559.92437808
  Solvation  Ediel_sol  =         0.00000000
  ---------------------------------------------------
  free energy    TOTEN  =       971.44613065 eV

  energy without entropy =      971.44613065  energy(sigma->0) =      971.44613065


--------------------------------------------------------------------------------------------------------




--------------------------------------- Iteration      1(   3)  ---------------------------------------


     EDDAV:  cpu time    5.6740: real time    5.7028
 BZINTS: Fermi energy: 11.869630;183.000000 electrons
         Band energy: -62.050618;  BLOECHL correction: -0.019447
       DOS:  cpu time    0.0426: real time    0.0427
    --------------------------------------------
      LOOP:  cpu time    5.7166: real time    5.7454

 eigenvalue-minimisations  : 10952
 total energy-change (2. order) :-0.7929187E+03  (-0.7207859E+03)
 number of electron     183.0000000 magnetization      19.0000000
 augmentation part      183.0000000 magnetization      19.0000000

 Free energy of the ion-electron system (eV)
  ---------------------------------------------------
  alpha Z        PSCENC =       806.94006873
  Ewald energy   TEWEN  =    -12255.22264901
  -Hartree energ DENC   =     -2456.07304470
  -exchange      EXHF   =         0.00000000
  -V(xc)+E(xc)   XCENC  =       563.14131316
  PAW double counting   =     10999.04824198   -10977.18021641
  entropy T*S    EENTRO =         0.00000000
  eigenvalues    EBANDS =       -62.05061789
  atomic energy  EATOM  =     13559.92437808
  Solvation  Ediel_sol  =         0.00000000
  ---------------------------------------------------
  free energy    TOTEN  =       178.52747393 eV

  energy without entropy =      178.52747393  energy(sigma->0) =      178.52747393


--------------------------------------------------------------------------------------------------------




--------------------------------------- Iteration      1(   4)  ---------------------------------------


     EDDAV:  cpu time    7.2349: real time    7.2700
 BZINTS: Fermi energy: 11.158182;183.000000 electrons
         Band energy:-391.472049;  BLOECHL correction: -0.005059
       DOS:  cpu time    0.0453: real time    0.0456
    --------------------------------------------
      LOOP:  cpu time    7.2802: real time    7.3156

 eigenvalue-minimisations  : 14696
 total energy-change (2. order) :-0.3294214E+03  (-0.3105302E+03)
 number of electron     183.0000000 magnetization      19.0000000
 augmentation part      183.0000000 magnetization      19.0000000

 Free energy of the ion-electron system (eV)
  ---------------------------------------------------
  alpha Z        PSCENC =       806.94006873
  Ewald energy   TEWEN  =    -12255.22264901
  -Hartree energ DENC   =     -2456.07304470
  -exchange      EXHF   =         0.00000000
  -V(xc)+E(xc)   XCENC  =       563.14131316
  PAW double counting   =     10999.04824198   -10977.18021641
  entropy T*S    EENTRO =         0.00000000
  eigenvalues    EBANDS =      -391.47204950
  atomic energy  EATOM  =     13559.92437808
  Solvation  Ediel_sol  =         0.00000000
  ---------------------------------------------------
  free energy    TOTEN  =      -150.89395767 eV

  energy without entropy =     -150.89395767  energy(sigma->0) =     -150.89395767


--------------------------------------------------------------------------------------------------------




--------------------------------------- Iteration      1(   5)  ---------------------------------------


     EDDAV:  cpu time    7.9262: real time    7.9631
 BZINTS: Fermi energy: 10.808051;183.000000 electrons
         Band energy:-458.865227;  BLOECHL correction: -0.047019
       DOS:  cpu time    0.0430: real time    0.0434
    CHARGE:  cpu time    0.2260: real time    0.2267
    MIXING:  cpu time    0.0035: real time    0.0037
    --------------------------------------------
      LOOP:  cpu time    8.1988: real time    8.2368

 eigenvalue-minimisations  : 16416
 total energy-change (2. order) :-0.6739318E+02  (-0.6535064E+02)
 number of electron     183.0000009 magnetization      17.0107192
 augmentation part       19.7290690 magnetization      11.3647288

 Broyden mixing:
  rms(total) = 0.62385E+01    rms(broyden)= 0.62380E+01
  rms(prec ) = 0.78415E+01
  weight for this iteration     100.00

 Free energy of the ion-electron system (eV)
  ---------------------------------------------------
  alpha Z        PSCENC =       806.94006873
  Ewald energy   TEWEN  =    -12255.22264901
  -Hartree energ DENC   =     -2456.07304470
  -exchange      EXHF   =         0.00000000
  -V(xc)+E(xc)   XCENC  =       563.14131316
  PAW double counting   =     10999.04824198   -10977.18021641
  entropy T*S    EENTRO =         0.00000000
  eigenvalues    EBANDS =      -458.86522703
  atomic energy  EATOM  =     13559.92437808
  Solvation  Ediel_sol  =         0.00000000
  ---------------------------------------------------
  free energy    TOTEN  =      -218.28713521 eV

  energy without entropy =     -218.28713521  energy(sigma->0) =     -218.28713521


--------------------------------------------------------------------------------------------------------




--------------------------------------- Iteration      1(   6)  ---------------------------------------


    POTLOK:  cpu time    0.0841: real time    0.0852
    SETDIJ:  cpu time    0.0175: real time    0.0175
atom =   1  type =  1  l = 0
 
 onsite density matrix
 
spin component  1
 
  1.0571
 
spin component  2
 
  1.0565
 
 occupancies and eigenvectors
 
  o =  1.0565  v =  0.0000  1.0000      0.0000  0.0000
  o =  1.0571  v =  1.0000  0.0000      0.0000  0.0000
atom =   2  type =  1  l = 0
 
 onsite density matrix
 
spin component  1
 
  1.0563
 
spin component  2
 
  1.0559
 
 occupancies and eigenvectors
 
  o =  1.0559  v =  0.0000  1.0000      0.0000  0.0000
  o =  1.0563  v =  1.0000  0.0000      0.0000  0.0000
atom =   3  type =  1  l = 0
 
 onsite density matrix
 
spin component  1
 
  1.0561
 
spin component  2
 
  1.0561
 
 occupancies and eigenvectors
 
  o =  1.0561  v =  0.0000  1.0000      0.0000  0.0000
  o =  1.0561  v =  1.0000  0.0000      0.0000  0.0000
atom =   4  type =  1  l = 0
 
 onsite density matrix
 
spin component  1
 
  1.0563
 
spin component  2
 
  1.0559
 
 occupancies and eigenvectors
 
  o =  1.0559  v =  0.0000  1.0000      0.0000  0.0000
  o =  1.0563  v =  1.0000  0.0000      0.0000  0.0000
atom =   5  type =  1  l = 0
 
 onsite density matrix
 
spin component  1
 
  1.0571
 
spin component  2
 
  1.0565
 
 occupancies and eigenvectors
 
  o =  1.0565  v =  0.0000  1.0000      0.0000  0.0000
  o =  1.0571  v =  1.0000  0.0000      0.0000  0.0000
atom =   6  type =  2  l = 2
 
 onsite density matrix
 
spin component  1
 
  0.9545 -0.0002  0.0024  0.0002  0.0000
 -0.0002  0.9601 -0.0036 -0.0002 -0.0002
  0.0024 -0.0036  0.5044  0.0036  0.0000
  0.0002 -0.0002  0.0036  0.9601 -0.0002
  0.0000 -0.0002  0.0000 -0.0002  0.3936
 
spin component  2
 
  0.0326 -0.0000 -0.0016  0.0000 -0.0000
 -0.0000  0.0260  0.0021 -0.0000  0.0002
 -0.0016  0.0021  0.3459 -0.0021 -0.0000
  0.0000 -0.0000 -0.0021  0.0260  0.0002
 -0.0000  0.0002 -0.0000  0.0002  0.4212
 
 occupancies and eigenvectors
 
  o =  0.0259  v =  0.0000  0.0000  0.0000  0.0000  0.0000 -0.0000 -0.7071  0.0000 -0.7071  0.0007      0.0000  0.0000  0.0000  0.0000  0.0000  0.0000  0.0000  0.0000  0.0000  0.0000
  o =  0.0260  v =  0.0000  0.0000  0.0000  0.0000  0.0000  0.0050  0.7071 -0.0092 -0.7071  0.0000      0.0000  0.0000  0.0000  0.0000  0.0000  0.0000  0.0000  0.0000  0.0000  0.0000
  o =  0.0326  v =  0.0000  0.0000  0.0000  0.0000  0.0000  1.0000 -0.0035  0.0052  0.0035  0.0000      0.0000  0.0000  0.0000  0.0000  0.0000  0.0000  0.0000  0.0000  0.0000  0.0000
  o =  0.3459  v =  0.0000  0.0000  0.0000  0.0000  0.0000 -0.0051  0.0065  0.9999 -0.0065  0.0000      0.0000  0.0000  0.0000  0.0000  0.0000  0.0000  0.0000  0.0000  0.0000  0.0000
  o =  0.3936  v = -0.0000  0.0003 -0.0000  0.0003  1.0000  0.0000  0.0000  0.0000  0.0000  0.0000      0.0000  0.0000  0.0000  0.0000  0.0000  0.0000  0.0000  0.0000  0.0000  0.0000
  o =  0.4212  v =  0.0000  0.0000  0.0000  0.0000  0.0000  0.0000 -0.0005  0.0000 -0.0005 -1.0000      0.0000  0.0000  0.0000  0.0000  0.0000  0.0000  0.0000  0.0000  0.0000  0.0000
  o =  0.5044  v =  0.0053 -0.0078 -0.9999  0.0078 -0.0000  0.0000  0.0000  0.0000  0.0000  0.0000      0.0000  0.0000  0.0000  0.0000  0.0000  0.0000  0.0000  0.0000  0.0000  0.0000
  o =  0.9545  v =  0.9991  0.0293  0.0048 -0.0293  0.0000  0.0000  0.0000  0.0000  0.0000  0.0000      0.0000  0.0000  0.0000  0.0000  0.0000  0.0000  0.0000  0.0000  0.0000  0.0000
  o =  0.9599  v = -0.0000 -0.7071 -0.0000 -0.7071  0.0004  0.0000  0.0000  0.0000  0.0000  0.0000      0.0000  0.0000  0.0000  0.0000  0.0000  0.0000  0.0000  0.0000  0.0000  0.0000
  o =  0.9603  v =  0.0414 -0.7065  0.0113  0.7065  0.0000  0.0000  0.0000  0.0000  0.0000  0.0000      0.0000  0.0000  0.0000  0.0000  0.0000  0.0000  0.0000  0.0000  0.0000  0.0000
atom =   7  type =  2  l = 2
 
 onsite density matrix
 
spin component  1
 
  0.9587  0.0032  0.0009 -0.0032  0.0000
  0.0032  0.9549  0.0040  0.0011 -0.0021
  0.0009  0.0040  0.4267 -0.0040 -0.0000
 -0.0032  0.0011 -0.0040  0.9549 -0.0021
  0.0000 -0.0021 -0.0000 -0.0021  0.5047
 
spin component  2
 
  0.0224 -0.0020 -0.0005  0.0020 -0.0000
 -0.0020  0.0284 -0.0025 -0.0009  0.0012
 -0.0005 -0.0025  0.3971  0.0025  0.0000
  0.0020 -0.0009  0.0025  0.0284  0.0012
 -0.0000  0.0012  0.0000  0.0012  0.3430
 
 occupancies and eigenvectors
 
  o =  0.0214  v =  0.0000  0.0000  0.0000  0.0000  0.0000  0.9423  0.2367  0.0043 -0.2367  0.0000      0.0000  0.0000  0.0000  0.0000  0.0000  0.0000  0.0000  0.0000  0.0000  0.0000
  o =  0.0276  v =  0.0000  0.0000  0.0000  0.0000  0.0000  0.0000  0.7071 -0.0000  0.7071 -0.0054      0.0000  0.0000  0.0000  0.0000  0.0000  0.0000  0.0000  0.0000  0.0000  0.0000
  o =  0.0303  v =  0.0000  0.0000  0.0000  0.0000  0.0000  0.3348 -0.6663 -0.0086  0.6663  0.0000      0.0000  0.0000  0.0000  0.0000  0.0000  0.0000  0.0000  0.0000  0.0000  0.0000
  o =  0.3430  v =  0.0000  0.0000  0.0000  0.0000  0.0000 -0.0000  0.0038 -0.0000  0.0038  1.0000      0.0000  0.0000  0.0000  0.0000  0.0000  0.0000  0.0000  0.0000  0.0000  0.0000
  o =  0.3971  v =  0.0000  0.0000  0.0000  0.0000  0.0000  0.0012  0.0068 -1.0000 -0.0068 -0.0000      0.0000  0.0000  0.0000  0.0000  0.0000  0.0000  0.0000  0.0000  0.0000  0.0000
  o =  0.4267  v =  0.0017  0.0076 -0.9999 -0.0076 -0.0000  0.0000  0.0000  0.0000  0.0000  0.0000      0.0000  0.0000  0.0000  0.0000  0.0000  0.0000  0.0000  0.0000  0.0000  0.0000
  o =  0.5047  v = -0.0000  0.0045 -0.0000  0.0045  1.0000  0.0000  0.0000  0.0000  0.0000  0.0000      0.0000  0.0000  0.0000  0.0000  0.0000  0.0000  0.0000  0.0000  0.0000  0.0000
  o =  0.9511  v = -0.5182  0.6047  0.0084 -0.6047  0.0000  0.0000  0.0000  0.0000  0.0000  0.0000      0.0000  0.0000  0.0000  0.0000  0.0000  0.0000  0.0000  0.0000  0.0000  0.0000
  o =  0.9559  v =  0.0000 -0.7071 -0.0000 -0.7071  0.0064  0.0000  0.0000  0.0000  0.0000  0.0000      0.0000  0.0000  0.0000  0.0000  0.0000  0.0000  0.0000  0.0000  0.0000  0.0000
  o =  0.9614  v = -0.8553 -0.3664 -0.0070  0.3664  0.0000  0.0000  0.0000  0.0000  0.0000  0.0000      0.0000  0.0000  0.0000  0.0000  0.0000  0.0000  0.0000  0.0000  0.0000  0.0000
atom =   8  type =  2  l = 2
 
 onsite density matrix
 
spin component  1
 
  0.9545 -0.0002  0.0024  0.0002  0.0000
 -0.0002  0.9601 -0.0036 -0.0002 -0.0002
  0.0024 -0.0036  0.5044  0.0036  0.0000
  0.0002 -0.0002  0.0036  0.9601 -0.0002
  0.0000 -0.0002  0.0000 -0.0002  0.3936
 
spin component  2
 
  0.0326 -0.0000 -0.0016  0.0000 -0.0000
 -0.0000  0.0260  0.0021 -0.0000  0.0002
 -0.0016  0.0021  0.3459 -0.0021  0.0000
  0.0000 -0.0000 -0.0021  0.0260  0.0002
 -0.0000  0.0002  0.0000  0.0002  0.4212
 
 occupancies and eigenvectors
 
  o =  0.0259  v =  0.0000  0.0000  0.0000  0.0000  0.0000 -0.0000 -0.7071  0.0000 -0.7071  0.0007      0.0000  0.0000  0.0000  0.0000  0.0000  0.0000  0.0000  0.0000  0.0000  0.0000
  o =  0.0260  v =  0.0000  0.0000  0.0000  0.0000  0.0000  0.0050  0.7071 -0.0092 -0.7071  0.0000      0.0000  0.0000  0.0000  0.0000  0.0000  0.0000  0.0000  0.0000  0.0000  0.0000
  o =  0.0326  v =  0.0000  0.0000  0.0000  0.0000  0.0000  1.0000 -0.0035  0.0052  0.0035  0.0000      0.0000  0.0000  0.0000  0.0000  0.0000  0.0000  0.0000  0.0000  0.0000  0.0000
  o =  0.3459  v =  0.0000  0.0000  0.0000  0.0000  0.0000 -0.0051  0.0065  0.9999 -0.0065 -0.0000      0.0000  0.0000  0.0000  0.0000  0.0000  0.0000  0.0000  0.0000  0.0000  0.0000
[...]
 -0.000  -0.000   0.000   0.000   0.000  -0.000  -0.000  -0.000  -0.000   0.000   0.000   0.000   0.000  -0.000   0.000  -0.000
 -0.000   0.000  -0.000   0.000  -0.000   0.000  -0.000   0.000  -0.000  -0.000   0.000  -0.001   0.000   0.000   0.000   0.000
  0.000  -0.000   0.000  -0.000  -0.000  -0.000   0.000   0.000  -0.001  -0.000   0.000   0.000  -0.000   0.000   0.000  -0.000
  0.000  -0.000  -0.000  -0.000  -0.000   0.000   0.000   0.000   0.000  -0.001  -0.000  -0.000   0.000  -0.000   0.000  -0.000
  0.000   0.003   0.000   0.000  -0.000  -0.000  -0.001   0.000  -0.002  -0.000   0.005   0.000  -0.000   0.001   0.000  -0.002
 -0.000  -0.000   0.000   0.000   0.000  -0.000  -0.000  -0.001  -0.000  -0.003   0.000   0.007   0.000   0.000   0.002  -0.000
 -0.000   0.000  -0.000  -0.000   0.000   0.000   0.000  -0.000   0.005   0.000   0.031  -0.000   0.000  -0.002  -0.000  -0.011
  0.000   0.000   0.000  -0.000   0.000  -0.001   0.000  -0.000   0.000   0.007  -0.000  -0.003   0.000  -0.000  -0.003   0.000
  0.000   0.000   0.000   0.000   0.000   0.000  -0.000   0.000  -0.000   0.000   0.000   0.000   0.030   0.000  -0.000  -0.000
 -0.000  -0.002   0.000   0.000  -0.000   0.000   0.000  -0.000   0.001   0.000  -0.002  -0.000   0.000  -0.001   0.000   0.001
  0.000   0.000   0.000  -0.000   0.000   0.000   0.000   0.000   0.000   0.002  -0.000  -0.003  -0.000   0.000  -0.001  -0.000
  0.000  -0.000   0.000  -0.000  -0.000   0.000  -0.000  -0.000  -0.002  -0.000  -0.011   0.000  -0.000   0.001  -0.000   0.004
 -0.000  -0.000   0.000   0.000   0.000   0.000  -0.000   0.000  -0.000  -0.003   0.000   0.002  -0.000  -0.000   0.001   0.000
 -0.000  -0.000  -0.000   0.000  -0.000  -0.000   0.000  -0.000   0.000  -0.000  -0.000  -0.000  -0.011  -0.000   0.000   0.000
  0.000  -0.000   0.000   0.000  -0.000   0.001  -0.000  -0.000  -0.000   0.001   0.000   0.000  -0.000   0.000  -0.000  -0.000
  0.000   0.005  -0.000  -0.000   0.000  -0.000  -0.001   0.000   0.002  -0.000  -0.000   0.000   0.000  -0.001   0.000   0.000
  0.000  -0.000   0.000  -0.000  -0.000   0.000  -0.000  -0.000  -0.000  -0.000  -0.000  -0.000   0.000   0.000   0.000   0.000
  0.000  -0.001  -0.000  -0.001   0.000  -0.000  -0.001   0.000  -0.000  -0.000  -0.000   0.000  -0.000   0.000   0.000  -0.000
 -0.000   0.000  -0.000   0.000   0.000  -0.000   0.000   0.000   0.000  -0.000   0.000  -0.000   0.000  -0.000  -0.000  -0.000
  0.000   0.000  -0.000  -0.000  -0.000  -0.000  -0.000  -0.000   0.000   0.000  -0.000   0.000  -0.002  -0.000  -0.000   0.000
  0.000  -0.000   0.000   0.000  -0.000   0.000  -0.000  -0.001  -0.000  -0.000   0.000  -0.001   0.000   0.000   0.000  -0.000
 -0.000   0.000   0.000  -0.000  -0.000  -0.001   0.000   0.000   0.000  -0.002  -0.000  -0.001   0.000  -0.000   0.001   0.000
 -0.000  -0.008  -0.000  -0.001   0.000   0.000   0.001  -0.000  -0.004   0.000   0.000  -0.000  -0.000   0.001  -0.000  -0.000
  0.000   0.000  -0.000  -0.000  -0.000  -0.001   0.000   0.000   0.000   0.000  -0.000   0.000  -0.000  -0.000  -0.000   0.000
 -0.000   0.001  -0.000  -0.000   0.000   0.000   0.001  -0.000   0.001   0.000   0.001  -0.000   0.000  -0.000  -0.000  -0.000
 -0.000  -0.000  -0.000   0.000  -0.000   0.000  -0.000  -0.001  -0.000   0.000   0.000   0.000  -0.000   0.000  -0.000  -0.000
 -0.000  -0.000   0.000  -0.000   0.000   0.000   0.000   0.000  -0.000  -0.000   0.000  -0.000   0.004   0.000   0.000  -0.000
 -0.000   0.000   0.000  -0.000  -0.000  -0.000   0.000   0.001   0.000   0.001  -0.000   0.002  -0.000  -0.000  -0.000   0.000


------------------------ aborting loop because EDIFF is reached ----------------------------------------


 


 total charge     
 
# of ion       s       p       d       f       tot
--------------------------------------------------
    1        1.998   5.695   0.478   0.185   8.357
    2        1.998   5.696   0.477   0.185   8.357
    3        1.998   5.696   0.476   0.185   8.355
    4        1.998   5.696   0.477   0.185   8.357
    5        1.999   5.695   0.478   0.185   8.357
    6        0.330   0.504   4.884   0.000   5.718
    7        0.319   0.476   4.901   0.000   5.695
    8        0.330   0.504   4.884   0.000   5.718
    9        0.319   0.476   4.900   0.000   5.695
   10        0.388   0.554   8.321   0.000   9.263
   11        1.563   3.459   0.000   0.000   5.022
   12        1.568   3.447   0.000   0.000   5.015
   13        1.563   3.459   0.000   0.000   5.022
   14        1.559   3.456   0.000   0.000   5.014
   15        1.559   3.455   0.000   0.000   5.014
   16        1.563   3.460   0.000   0.000   5.023
   17        1.563   3.460   0.000   0.000   5.023
   18        1.560   3.456   0.000   0.000   5.016
   19        1.567   3.450   0.000   0.000   5.016
   20        1.560   3.456   0.000   0.000   5.016
   21        1.567   3.449   0.000   0.000   5.015
   22        1.560   3.456   0.000   0.000   5.016
   23        1.563   3.459   0.000   0.000   5.022
   24        1.563   3.459   0.000   0.000   5.022
   25        1.560   3.456   0.000   0.000   5.016
--------------------------------------------------
tot         35.115  82.829  30.277   0.926 149.146

 


 magnetization (x)
 
# of ion       s       p       d       f       tot
--------------------------------------------------
    1        0.001   0.001   0.010   0.006   0.017
    2        0.001   0.001   0.011   0.007   0.019
    3        0.000   0.001   0.010   0.006   0.017
    4        0.001   0.001   0.011   0.007   0.019
    5        0.001   0.001   0.010   0.006   0.017
    6        0.027   0.031   3.647   0.000   3.706
    7        0.027   0.027   3.786   0.000   3.840
    8        0.028   0.031   3.648   0.000   3.706
    9        0.027   0.027   3.785   0.000   3.839
   10        0.009  -0.003   1.700   0.000   1.706
   11        0.006  -0.027   0.000   0.000  -0.021
   12        0.009  -0.057   0.000   0.000  -0.048
   13        0.006  -0.027   0.000   0.000  -0.021
   14        0.005  -0.002   0.000   0.000   0.003
   15        0.005  -0.002   0.000   0.000   0.003
   16        0.005  -0.028   0.000   0.000  -0.023
   17        0.005  -0.028   0.000   0.000  -0.023
   18        0.005  -0.008   0.000   0.000  -0.002
   19        0.007  -0.056   0.000   0.000  -0.049
   20        0.005  -0.008   0.000   0.000  -0.002
   21        0.007  -0.057   0.000   0.000  -0.050
   22        0.005  -0.007   0.000   0.000  -0.002
   23        0.005  -0.028   0.000   0.000  -0.023
   24        0.005  -0.028   0.000   0.000  -0.023
   25        0.005  -0.007   0.000   0.000  -0.002
--------------------------------------------------
tot          0.208  -0.254  16.618   0.032  16.604

 
    CHARGE:  cpu time    0.2234: real time    0.2246
    FORLOC:  cpu time    0.0094: real time    0.0094
    FORNL :  cpu time    1.6109: real time    1.6184
    STRESS:  cpu time    4.9556: real time    4.9791
    FORCOR:  cpu time    0.0827: real time    0.0829
    FORHAR:  cpu time    0.0166: real time    0.0167
    MIXING:  cpu time    0.0052: real time    0.0052
    OFIELD:  cpu time    0.0001: real time    0.0002

  FORCE on cell =-STRESS in cart. coord.  units (eV):
  Direction    XX          YY          ZZ          XY          YZ          ZX
  --------------------------------------------------------------------------------------
  Alpha Z   806.94007   806.94007   806.94007
  Ewald   -4076.25659 -4076.25659 -4102.73932     8.54511     2.18014    -2.18014
  Hartree   855.49793   855.49790   837.51031     7.70491     2.69268    -2.69266
  E(xc)    -841.40070  -841.40070  -841.43836     0.00005    -0.00372     0.00370
  Local    -448.21342  -448.21321  -406.06675   -16.31312    -4.88992     4.88957
  n-local   327.63493   327.60659   327.37655     0.00223    -0.00373     0.00502
  augment   189.50655   189.50680   190.39166     0.01934     0.00584    -0.00574
  Kinetic  3186.55292  3186.62197  3188.81950     0.04947     0.00684    -0.01735
  Fock        0.00000     0.00000     0.00000     0.00000     0.00000     0.00000
  -------------------------------------------------------------------------------------
  Total       0.28226     0.28226     0.79365     0.00770    -0.00692     0.00692
  in kB       1.50978     1.50978     4.24515     0.04118    -0.03701     0.03701
  external pressure =        2.42 kB  Pullay stress =        0.00 kB


 VOLUME and BASIS-vectors are now :
 -----------------------------------------------------------------------------
  energy-cutoff  :      520.00
  volume of cell :      299.54
      direct lattice vectors                 reciprocal lattice vectors
    -3.909478054 -3.909478054  0.000000000    -0.153469087 -0.102319534 -0.051054156
    -3.911662100  3.911662100  3.918971228    -0.102265138  0.102265138  0.051020194
     0.000209054  3.909269000 -7.835339834    -0.051149553  0.051149553 -0.102108313

  length of vectors
     5.528836885  6.779420053  8.756422470     0.191385931  0.153360285  0.125134572


 FORCES acting on ions
    electron-ion (+dipol)            ewald-force                    non-local-force                 convergence-correction
 -----------------------------------------------------------------------------------------------
   -.376E+01 0.376E+01 -.601E+02   0.376E+01 -.376E+01 0.596E+02   -.115E-01 0.115E-01 0.453E+00   -.101E-02 0.101E-02 -.408E-02
   0.298E+02 -.298E+02 0.324E+02   -.295E+02 0.295E+02 -.321E+02   -.265E+00 0.265E+00 -.254E+00   -.536E-02 0.536E-02 0.369E-02
   0.467E-05 0.272E-05 -.342E-05   0.207E-10 0.632E-12 -.161E-10   -.533E-18 0.000E+00 0.217E-18   0.267E-05 0.254E-05 0.371E-06
   -.298E+02 0.298E+02 -.324E+02   0.295E+02 -.295E+02 0.321E+02   0.265E+00 -.265E+00 0.254E+00   0.536E-02 -.536E-02 -.369E-02
   0.376E+01 -.376E+01 0.601E+02   -.376E+01 0.376E+01 -.596E+02   0.115E-01 -.115E-01 -.453E+00   0.102E-02 -.101E-02 0.408E-02
   -.165E+02 0.165E+02 -.129E+02   0.163E+02 -.163E+02 0.128E+02   0.111E+00 -.111E+00 0.156E+00   0.583E-02 -.583E-02 0.642E-02
   -.399E+01 0.399E+01 0.112E+02   0.373E+01 -.373E+01 -.110E+02   0.243E+00 -.243E+00 -.228E+00   0.111E-02 -.111E-02 -.673E-02
   0.165E+02 -.165E+02 0.129E+02   -.163E+02 0.163E+02 -.128E+02   -.111E+00 0.111E+00 -.156E+00   -.583E-02 0.583E-02 -.642E-02
   0.399E+01 -.399E+01 -.112E+02   -.373E+01 0.373E+01 0.110E+02   -.243E+00 0.243E+00 0.228E+00   -.111E-02 0.111E-02 0.673E-02
   -.178E-04 0.799E-05 -.270E-04   0.946E-11 0.287E-10 0.283E-10   -.128E-19 0.136E-19 0.000E+00   0.160E-06 -.105E-06 0.684E-07
   -.102E+02 0.102E+02 -.116E+01   0.103E+02 -.103E+02 -.752E+00   -.182E+00 0.182E+00 0.185E+01   0.341E-02 -.341E-02 -.222E-01
   -.190E-04 -.320E-05 -.141E-04   0.824E-12 -.108E-10 -.260E-10   -.403E-19 0.000E+00 -.217E-18   -.285E-07 -.979E-08 0.772E-07
   0.102E+02 -.102E+02 0.116E+01   -.103E+02 0.103E+02 0.752E+00   0.182E+00 -.182E+00 -.185E+01   -.341E-02 0.341E-02 0.222E-01
   0.561E+00 -.561E+00 -.619E+02   -.755E+00 0.755E+00 0.581E+02   0.182E+00 -.182E+00 0.376E+01   0.113E-02 -.113E-02 -.165E-01
   -.561E+00 0.561E+00 0.619E+02   0.755E+00 -.755E+00 -.581E+02   -.182E+00 0.182E+00 -.376E+01   -.113E-02 0.113E-02 0.165E-01
   0.111E+02 -.150E+02 0.113E+02   -.116E+02 0.171E+02 -.114E+02   0.531E+00 -.205E+01 0.312E-01   -.229E-02 -.143E-01 -.534E-02
   -.111E+02 0.150E+02 -.113E+02   0.116E+02 -.171E+02 0.114E+02   -.531E+00 0.205E+01 -.312E-01   0.229E-02 0.143E-01 0.534E-02
   0.983E+01 -.500E+02 0.140E+01   -.101E+02 0.460E+02 -.110E+01   0.257E+00 0.407E+01 -.331E+00   -.108E-02 0.336E-02 -.235E-02
   -.190E-04 -.382E-05 -.112E-04   -.306E-11 0.181E-10 -.187E-11   -.701E-19 0.678E-19 0.000E+00   0.265E-07 -.254E-07 -.648E-07
   -.983E+01 0.500E+02 -.140E+01   0.101E+02 -.460E+02 0.110E+01   -.257E+00 -.407E+01 0.331E+00   0.108E-02 -.336E-02 0.235E-02
   -.178E-04 0.725E-06 -.128E-04   -.153E-10 0.105E-10 -.954E-11   -.168E-19 -.136E-19 0.000E+00   0.134E-07 -.158E-07 -.658E-07
   -.500E+02 0.983E+01 -.140E+01   0.460E+02 -.101E+02 0.110E+01   0.407E+01 0.257E+00 0.331E+00   0.336E-02 -.108E-02 0.235E-02
   0.150E+02 -.111E+02 0.113E+02   -.171E+02 0.116E+02 -.114E+02   0.205E+01 -.531E+00 0.312E-01   0.143E-01 0.229E-02 -.534E-02
   -.150E+02 0.111E+02 -.113E+02   0.171E+02 -.116E+02 0.114E+02   -.205E+01 0.531E+00 -.312E-01   -.143E-01 -.229E-02 0.534E-02
   0.500E+02 -.983E+01 0.140E+01   -.460E+02 0.101E+02 -.110E+01   -.407E+01 -.257E+00 -.331E+00   -.336E-02 0.108E-02 -.235E-02
 -----------------------------------------------------------------------------------------------
   -.814E-04 -.132E-04 -.608E-04   -.568E-13 -.195E-13 -.568E-13   0.000E+00 0.555E-16 0.888E-15   0.175E-05 0.304E-05 -.327E-06
 
 
 POSITION                                       TOTAL-FORCE (eV/Angst)
 -----------------------------------------------------------------------------------
     -3.91315      0.00367     -3.96694        -0.006790      0.006790     -0.064270
     -3.88050     -0.02898      0.02524         0.069710     -0.069710      0.027172
     -3.91062      3.91062     -3.91689        -0.000000      0.000000     -0.000000
     -3.94096      3.94096     -0.02368        -0.069710      0.069710     -0.027172
     -3.90591     -0.00357     -7.78581         0.006790     -0.006790      0.064270
     -5.86779      1.95831     -1.95135        -0.036775      0.036775      0.000025
     -5.86379      1.95431      1.96992        -0.010726      0.010726      0.030901
     -1.95366      1.95366      1.95291         0.036775     -0.036775     -0.000025
     -1.95766      1.95766     -1.96836         0.010726     -0.010726     -0.030901
     -1.95479      1.95479     -5.87637        -0.000000      0.000000     -0.000000
     -5.86618      1.95670      0.04196        -0.014043      0.014043     -0.090029
     -5.86536      1.95588     -3.91689        -0.000000      0.000000     -0.000000
     -1.95527      1.95527     -0.04040         0.014043     -0.014043      0.090029
     -1.95502      1.95502     -3.89794        -0.010371      0.010371     -0.022942
     -5.86643      1.95695      3.89950         0.010371     -0.010371      0.022942
     -5.86052     -0.03070      1.95744         0.045527      0.030753      0.002203
     -5.87041      0.03320     -1.95588        -0.045527     -0.030753     -0.002203
     -1.95472      3.93378     -5.87973         0.023195      0.041484     -0.034797
     -1.95489      0.00016     -1.95870        -0.000000      0.000000     -0.000000
     -5.86652      3.88746     -1.95404        -0.023195     -0.041484      0.034797
     -3.90963     -1.95458     -1.95870        -0.000000      0.000000     -0.000000
     -3.88746      5.86652     -1.95404         0.041484      0.023195      0.034797
     -3.87877      1.95104      1.95744        -0.030753     -0.045527      0.002203
     -3.94268      1.96094     -1.95588         0.030753      0.045527     -0.002203
     -3.93378      1.95472     -5.87973        -0.041484     -0.023195     -0.034797
 -----------------------------------------------------------------------------------
    total drift:                               -0.000080     -0.000010     -0.000061


--------------------------------------------------------------------------------------------------------



  FREE ENERGIE OF THE ION-ELECTRON SYSTEM (eV)
  ---------------------------------------------------
  free  energy   TOTEN  =      -192.71598620 eV

  energy  without entropy=     -192.71598620  energy(sigma->0) =     -192.71598620
 


--------------------------------------------------------------------------------------------------------


    POTLOK:  cpu time    0.0854: real time    0.0865


--------------------------------------------------------------------------------------------------------


     LOOP+:  cpu time  133.1550: real time  133.8485
    4ORBIT:  cpu time    0.0000: real time    0.0000
 


 total charge     
 
# of ion       s       p       d       f       tot
--------------------------------------------------
    1        1.998   5.695   0.478   0.185   8.357
    2        1.998   5.696   0.477   0.185   8.357
    3        1.998   5.696   0.476   0.185   8.355
    4        1.998   5.696   0.477   0.185   8.357
    5        1.999   5.695   0.478   0.185   8.357
    6        0.330   0.504   4.884   0.000   5.718
    7        0.319   0.476   4.901   0.000   5.695
    8        0.330   0.504   4.884   0.000   5.718
    9        0.319   0.476   4.900   0.000   5.695
   10        0.388   0.554   8.321   0.000   9.263
   11        1.563   3.459   0.000   0.000   5.022
   12        1.568   3.447   0.000   0.000   5.015
   13        1.563   3.459   0.000   0.000   5.022
   14        1.559   3.456   0.000   0.000   5.014
   15        1.559   3.455   0.000   0.000   5.014
   16        1.563   3.460   0.000   0.000   5.023
   17        1.563   3.460   0.000   0.000   5.023
   18        1.560   3.456   0.000   0.000   5.016
   19        1.567   3.450   0.000   0.000   5.016
   20        1.560   3.456   0.000   0.000   5.016
   21        1.567   3.449   0.000   0.000   5.015
   22        1.560   3.456   0.000   0.000   5.016
   23        1.563   3.459   0.000   0.000   5.022
   24        1.563   3.459   0.000   0.000   5.022
   25        1.560   3.456   0.000   0.000   5.016
--------------------------------------------------
tot         35.115  82.829  30.277   0.926 149.146

 


 magnetization (x)
 
# of ion       s       p       d       f       tot
--------------------------------------------------
    1        0.001   0.001   0.010   0.006   0.017
    2        0.001   0.001   0.011   0.007   0.019
    3        0.000   0.001   0.010   0.006   0.017
    4        0.001   0.001   0.011   0.007   0.019
    5        0.001   0.001   0.010   0.006   0.017
    6        0.027   0.031   3.647   0.000   3.706
    7        0.027   0.027   3.786   0.000   3.840
    8        0.028   0.031   3.648   0.000   3.706
    9        0.027   0.027   3.785   0.000   3.839
   10        0.009  -0.003   1.700   0.000   1.706
   11        0.006  -0.027   0.000   0.000  -0.021
   12        0.009  -0.057   0.000   0.000  -0.048
   13        0.006  -0.027   0.000   0.000  -0.021
   14        0.005  -0.002   0.000   0.000   0.003
   15        0.005  -0.002   0.000   0.000   0.003
   16        0.005  -0.028   0.000   0.000  -0.023
   17        0.005  -0.028   0.000   0.000  -0.023
   18        0.005  -0.008   0.000   0.000  -0.002
   19        0.007  -0.056   0.000   0.000  -0.049
   20        0.005  -0.008   0.000   0.000  -0.002
   21        0.007  -0.057   0.000   0.000  -0.050
   22        0.005  -0.007   0.000   0.000  -0.002
   23        0.005  -0.028   0.000   0.000  -0.023
   24        0.005  -0.028   0.000   0.000  -0.023
   25        0.005  -0.007   0.000   0.000  -0.002
--------------------------------------------------
tot          0.208  -0.254  16.618   0.032  16.604

 
 BZINTS: Fermi energy:  8.186549;183.000000 electrons
         Band energy:-336.064049;  BLOECHL correction: -0.004328

 total amount of memory used by VASP MPI-rank0    79834. kBytes
=======================================================================

   base      :      30000. kBytes
   nonlr-proj:       6485. kBytes
   fftplans  :       2818. kBytes
   grid      :       8208. kBytes
   one-center:        294. kBytes
   wavefun   :      32029. kBytes
 
  
  
 General timing and accounting informations for this job:
 ========================================================
  
                  Total CPU time used (sec):      142.703
                            User time (sec):      139.509
                          System time (sec):        3.194
                         Elapsed time (sec):      143.529
  
                   Maximum memory used (kb):      135344.
                   Average memory used (kb):           0.
  
                          Minor page faults:        43086
                          Major page faults:            0
                 Voluntary context switches:         2571
