 vasp.5.4.4.18Apr17-6-g9f103f2a35 (build Oct 03 2018 13:58:34) complex          
  
 executed on             LinuxIFC date 2019.06.04  01:28:59
 running on   40 total cores
 distrk:  each k-point on   20 cores,    2 groups
 distr:  one band on NCORES_PER_BAND=  10 cores,    2 groups


--------------------------------------------------------------------------------------------------------


 INCAR:
 POTCAR:    PAW_PBE La 06Sep2000                  
 POTCAR:    PAW_PBE Mn 06Sep2000                  
 POTCAR:    PAW_PBE Ni 02Aug2007                  
 POTCAR:    PAW_PBE O 08Apr2002                   

 ----------------------------------------------------------------------------- 
|                                                                             |
|           W    W    AA    RRRRR   N    N  II  N    N   GGGG   !!!           |
|           W    W   A  A   R    R  NN   N  II  NN   N  G    G  !!!           |
|           W    W  A    A  R    R  N N  N  II  N N  N  G       !!!           |
|           W WW W  AAAAAA  RRRRR   N  N N  II  N  N N  G  GGG   !            |
|           WW  WW  A    A  R   R   N   NN  II  N   NN  G    G                |
|           W    W  A    A  R    R  N    N  II  N    N   GGGG   !!!           |
|                                                                             |
|      You have enabled k-point parallelism (KPAR>1).                         |
|      This developmental code was originally  written by Paul Kent at ORNL,  |
|      and carefully double checked in Vienna.                                |
|      GW as well as linear response parallelism added by Martijn Marsman     |
|      and Georg Kresse.                                                      |
|      Carefully verify results versus KPAR=1.                                |
|      Report problems to Paul Kent and Vienna.                               |
|                                                                             |
 ----------------------------------------------------------------------------- 

 POTCAR:    PAW_PBE La 06Sep2000                  
   VRHFIN =La : [core=Kr4d]                                                     
   LEXCH  = PE                                                                  
   EATOM  =   865.9763 eV,   63.6475 Ry                                         
                                                                                
   TITEL  = PAW_PBE La 06Sep2000                                                
   LULTRA =        F    use ultrasoft PP ?                                      
   IUNSCR =        1    unscreen: 0-lin 1-nonlin 2-no                           
   RPACOR =    2.300    partial core radius                                     
   POMASS =  138.900; ZVAL   =   11.000    mass and valenz                      
   RCORE  =    2.800    outmost cutoff radius                                   
   RWIGS  =    2.900; RWIGS  =    1.535    wigner-seitz radius (au A)           
   ENMAX  =  219.292; ENMIN  =  164.469 eV                                      
   RCLOC  =    1.601    cutoff for local pot                                    
   LCOR   =        T    correct aug charges                                     
   LPAW   =        T    paw PP                                                  
   EAUG   =  583.575                                                            
   DEXC   =    0.000                                                            
   RMAX   =    2.853    core radius for proj-oper                               
   RAUG   =    1.300    factor for augmentation sphere                          
   RDEP   =    2.802    radius for radial grids                                 
   RDEPT  =    2.156    core radius for aug-charge                              
                                                                                
   Atomic configuration                                                         
   14 entries                                                                   
     n  l   j            E        occ.                                          
     1  0  0.50    -38741.0879   2.0000                                         
     2  0  0.50     -6166.6801   2.0000                                         
     2  1  1.50     -5526.1593   6.0000                                         
     3  0  0.50     -1319.0200   2.0000                                         
     3  1  1.50     -1114.5963   6.0000                                         
     3  2  2.50      -821.1793  10.0000                                         
     4  0  0.50      -266.3851   2.0000                                         
     4  1  1.50      -199.9276   6.0000                                         
     4  2  2.50      -103.8239  10.0000                                         
     5  0  0.50       -38.9172   2.0000                                         
     6  0  0.50        -3.6792   2.0000                                         
     5  1  1.50       -22.3948   6.0000                                         
     5  2  2.50        -3.0911   0.9999                                         
     4  3  2.50        -4.3603   0.0001                                         
   Description                                                                  
     l       E           TYP  RCUT    TYP  RCUT                                 
     0    -38.9171645     23  2.800                                             
     0     -3.6792381     23  2.800                                             
     1    -22.3948300     23  2.500                                             
     1     27.2116520     23  2.500                                             
     2     -3.0910934     23  2.500                                             
     2      1.0119135     23  2.500                                             
     3     -4.3602911     23  2.800                                             
     3     -5.7208737     23  2.800                                             
  local pseudopotential read in
  partial core-charges read in
  partial kinetic energy density read in
  atomic valenz-charges read in
  non local Contribution for L=           0  read in
    real space projection operators read in
  non local Contribution for L=           0  read in
    real space projection operators read in
  non local Contribution for L=           1  read in
    real space projection operators read in
  non local Contribution for L=           1  read in
    real space projection operators read in
  non local Contribution for L=           2  read in
    real space projection operators read in
  non local Contribution for L=           2  read in
    real space projection operators read in
  non local Contribution for L=           3  read in
    real space projection operators read in
  non local Contribution for L=           3  read in
    real space projection operators read in
    PAW grid and wavefunctions read in
 
   number of l-projection  operators is LMAX  =           8
   number of lm-projection operators is LMMAX =          32
 
 POTCAR:    PAW_PBE Mn 06Sep2000                  
   VRHFIN =Mn: d6 s1                                                            
   LEXCH  = PE                                                                  
   EATOM  =   416.7541 eV,   30.6306 Ry                                         
                                                                                
   TITEL  = PAW_PBE Mn 06Sep2000                                                
   LULTRA =        F    use ultrasoft PP ?                                      
   IUNSCR =        1    unscreen: 0-lin 1-nonlin 2-no                           
   RPACOR =    2.000    partial core radius                                     
   POMASS =   54.938; ZVAL   =    7.000    mass and valenz                      
   RCORE  =    2.300    outmost cutoff radius                                   
   RWIGS  =    2.500; RWIGS  =    1.323    wigner-seitz radius (au A)           
   ENMAX  =  269.864; ENMIN  =  202.398 eV                                      
   RCLOC  =    1.725    cutoff for local pot                                    
   LCOR   =        T    correct aug charges                                     
   LPAW   =        T    paw PP                                                  
   EAUG   =  500.711                                                            
   DEXC   =    0.000                                                            
   RMAX   =    2.343    core radius for proj-oper                               
   RAUG   =    1.300    factor for augmentation sphere                          
   RDEP   =    2.338    radius for radial grids                                 
   RDEPT  =    1.911    core radius for aug-charge                              
                                                                                
   Atomic configuration                                                         
    9 entries                                                                   
     n  l   j            E        occ.                                          
     1  0  0.50     -6424.8288   2.0000                                         
     2  0  0.50      -739.1154   2.0000                                         
     2  1  1.50      -625.3949   6.0000                                         
     3  0  0.50       -81.6100   2.0000                                         
     3  1  1.50       -50.4667   6.0000                                         
     3  2  2.50        -3.3745   6.0000                                         
     4  0  0.50        -4.1331   1.0000                                         
     4  1  0.50        -4.0817   0.0000                                         
     4  3  2.50        -1.3606   0.0000                                         
   Description                                                                  
     l       E           TYP  RCUT    TYP  RCUT                                 
     2     -3.3744664     23  2.300                                             
     2     -4.7350490     23  2.300                                             
     0     -4.1331408     23  2.300                                             
     0      7.6656614     23  2.300                                             
     1     -2.7211652     23  2.300                                             
     1     20.4087390     23  2.300                                             
  local pseudopotential read in
  partial core-charges read in
  partial kinetic energy density read in
  atomic valenz-charges read in
  non local Contribution for L=           2  read in
    real space projection operators read in
  non local Contribution for L=           2  read in
    real space projection operators read in
  non local Contribution for L=           0  read in
    real space projection operators read in
  non local Contribution for L=           0  read in
    real space projection operators read in
  non local Contribution for L=           1  read in
    real space projection operators read in
  non local Contribution for L=           1  read in
    real space projection operators read in
    PAW grid and wavefunctions read in
 
   number of l-projection  operators is LMAX  =           6
   number of lm-projection operators is LMMAX =          18
 
 POTCAR:    PAW_PBE Ni 02Aug2007                  
   VRHFIN =Ni:                                                                  
   LEXCH  = PE                                                                  
   EATOM  =  1077.6739 eV,   79.2068 Ry                                         
                                                                                
   TITEL  = PAW_PBE Ni 02Aug2007                                                
   LULTRA =        F    use ultrasoft PP ?                                      
   IUNSCR =        1    unscreen: 0-lin 1-nonlin 2-no                           
   RPACOR =    2.000    partial core radius                                     
   POMASS =   58.690; ZVAL   =   10.000    mass and valenz                      
   RCORE  =    2.300    outmost cutoff radius                                   
   RWIGS  =    2.430; RWIGS  =    1.286    wigner-seitz radius (au A)           
   ENMAX  =  269.532; ENMIN  =  202.149 eV                                      
   RCLOC  =    1.201    cutoff for local pot                                    
   LCOR   =        T    correct aug charges                                     
   LPAW   =        T    paw PP                                                  
   EAUG   =  544.565                                                            
   DEXC   =    0.000                                                            
   RMAX   =    2.357    core radius for proj-oper                               
   RAUG   =    1.300    factor for augmentation sphere                          
   RDEP   =    2.390    radius for radial grids                                 
   RDEPT  =    1.838    core radius for aug-charge                              
                                                                                
   Atomic configuration                                                         
    9 entries                                                                   
     n  l   j            E        occ.                                          
     1  0  0.50     -8206.4253   2.0000                                         
     2  0  0.50      -976.1748   2.0000                                         
     2  1  1.50      -839.0571   6.0000                                         
     3  0  0.50      -105.9991   2.0000                                         
     3  1  1.50       -66.4603   6.0000                                         
     3  2  2.50        -4.6458   9.0000                                         
     4  0  0.50        -4.4926   1.0000                                         
     4  1  1.50        -4.0817   0.0000                                         
     4  3  2.50        -1.3606   0.0000                                         
   Description                                                                  
     l       E           TYP  RCUT    TYP  RCUT                                 
     2     -4.6457903     23  2.300                                             
     2     -6.0063729     23  2.300                                             
     0     -4.4925590     23  2.300                                             
     0      5.0102601     23  2.300                                             
     1     -2.7211652     23  2.300                                             
     1     16.5183231     23  2.300                                             
  local pseudopotential read in
  partial core-charges read in
  partial kinetic energy density read in
  atomic valenz-charges read in
  non local Contribution for L=           2  read in
    real space projection operators read in
  non local Contribution for L=           2  read in
    real space projection operators read in
  non local Contribution for L=           0  read in
    real space projection operators read in
  non local Contribution for L=           0  read in
    real space projection operators read in
  non local Contribution for L=           1  read in
    real space projection operators read in
  non local Contribution for L=           1  read in
    real space projection operators read in
    PAW grid and wavefunctions read in
 
   number of l-projection  operators is LMAX  =           6
   number of lm-projection operators is LMMAX =          18
 
 POTCAR:    PAW_PBE O 08Apr2002                   
   VRHFIN =O: s2p4                                                              
   LEXCH  = PE                                                                  
   EATOM  =   432.3788 eV,   31.7789 Ry                                         
                                                                                
   TITEL  = PAW_PBE O 08Apr2002                                                 
   LULTRA =        F    use ultrasoft PP ?                                      
   IUNSCR =        1    unscreen: 0-lin 1-nonlin 2-no                           
   RPACOR =    1.200    partial core radius                                     
   POMASS =   16.000; ZVAL   =    6.000    mass and valenz                      
   RCORE  =    1.520    outmost cutoff radius                                   
   RWIGS  =    1.550; RWIGS  =    0.820    wigner-seitz radius (au A)           
   ENMAX  =  400.000; ENMIN  =  300.000 eV                                      
   ICORE  =        2    local potential                                         
   LCOR   =        T    correct aug charges                                     
   LPAW   =        T    paw PP                                                  
   EAUG   =  605.392                                                            
   DEXC   =    0.000                                                            
   RMAX   =    1.553    core radius for proj-oper                               
   RAUG   =    1.300    factor for augmentation sphere                          
   RDEP   =    1.550    radius for radial grids                                 
   RDEPT  =    1.329    core radius for aug-charge                              
                                                                                
   Atomic configuration                                                         
    4 entries                                                                   
     n  l   j            E        occ.                                          
     1  0  0.50      -514.6923   2.0000                                         
     2  0  0.50       -23.9615   2.0000                                         
     2  1  0.50        -9.0305   4.0000                                         
     3  2  1.50        -9.5241   0.0000                                         
   Description                                                                  
     l       E           TYP  RCUT    TYP  RCUT                                 
     0    -23.9615318     23  1.200                                             
     0     -9.5240782     23  1.200                                             
     1     -9.0304911     23  1.520                                             
     1      8.1634956     23  1.520                                             
     2     -9.5240782      7  1.500                                             
  local pseudopotential read in
  partial core-charges read in
  partial kinetic energy density read in
  kinetic energy density of atom read in
  atomic valenz-charges read in
  non local Contribution for L=           0  read in
    real space projection operators read in
  non local Contribution for L=           0  read in
    real space projection operators read in
  non local Contribution for L=           1  read in
    real space projection operators read in
  non local Contribution for L=           1  read in
    real space projection operators read in
    PAW grid and wavefunctions read in
 
   number of l-projection  operators is LMAX  =           4
   number of lm-projection operators is LMMAX =           8
 
 Optimization of the real space projectors (new method)

 maximal supplied QI-value         = 13.42
 optimisation between [QCUT,QGAM] = [ 11.67, 23.35] = [ 38.16,152.62] Ry 
 Optimized for a Real-space Cutoff    1.63 Angstroem

   l    n(q)    QCUT    max X(q) W(low)/X(q) W(high)/X(q)  e(spline) 
   0     11    11.673    13.882    0.27E-04    0.79E-05    0.11E-06
   0     11    11.673    12.184    0.39E-04    0.13E-04    0.19E-06
   1     11    11.673     4.523    0.73E-05    0.76E-05    0.12E-06
   1     11    11.673     4.424    0.87E-05    0.13E-04    0.19E-06
   2     10    11.673    52.481    0.65E-04    0.36E-04    0.18E-06
   2     10    11.673    38.501    0.61E-04    0.33E-04    0.17E-06
   3     10    11.673    65.631    0.17E-03    0.14E-03    0.37E-06
   3     10    11.673    56.854    0.17E-03    0.14E-03    0.37E-06
 Optimization of the real space projectors (new method)

 maximal supplied QI-value         = 16.25
 optimisation between [QCUT,QGAM] = [ 11.54, 23.24] = [ 37.28,151.24] Ry 
 Optimized for a Real-space Cutoff    1.53 Angstroem

   l    n(q)    QCUT    max X(q) W(low)/X(q) W(high)/X(q)  e(spline) 
   2     10    11.539   110.144    0.12E-03    0.13E-03    0.25E-06
   2     10    11.539   103.200    0.12E-03    0.13E-03    0.25E-06
   0     11    11.539    68.437    0.46E-04    0.21E-04    0.32E-06
   0     11    11.539    33.971    0.37E-04    0.19E-04    0.29E-06
   1     10    11.539    17.065    0.51E-04    0.22E-04    0.13E-06
   1     10    11.539    12.540    0.41E-04    0.18E-04    0.11E-06
 Optimization of the real space projectors (new method)

 maximal supplied QI-value         = 16.25
 optimisation between [QCUT,QGAM] = [ 11.54, 23.24] = [ 37.28,151.24] Ry 
 Optimized for a Real-space Cutoff    1.45 Angstroem

   l    n(q)    QCUT    max X(q) W(low)/X(q) W(high)/X(q)  e(spline) 
   2      9    11.539    60.317    0.19E-03    0.47E-04    0.16E-06
   2      9    11.539    55.921    0.19E-03    0.48E-04    0.16E-06
   0     10    11.539    51.690    0.80E-04    0.50E-04    0.24E-06
   0     10    11.539    30.015    0.73E-04    0.45E-04    0.22E-06
   1     10    11.539    18.849    0.87E-04    0.16E-03    0.71E-07
   1     10    11.539    14.624    0.73E-04    0.13E-03    0.64E-07
 Optimization of the real space projectors (new method)

 maximal supplied QI-value         = 24.76
 optimisation between [QCUT,QGAM] = [ 11.64, 23.27] = [ 37.91,151.63] Ry 
 Optimized for a Real-space Cutoff    1.14 Angstroem

   l    n(q)    QCUT    max X(q) W(low)/X(q) W(high)/X(q)  e(spline) 
   0      8    11.635    20.381    0.10E-03    0.33E-03    0.24E-06
   0      8    11.635    15.268    0.11E-03    0.35E-03    0.26E-06
   1      7    11.635     5.964    0.24E-03    0.31E-03    0.30E-06
   1      7    11.635     5.382    0.22E-03    0.25E-03    0.26E-06
  PAW_PBE La 06Sep2000                  :
 energy of atom  1       EATOM= -865.9763
 kinetic energy error for atom=    0.0009 (will be added to EATOM!!)
  PAW_PBE Mn 06Sep2000                  :
 energy of atom  2       EATOM= -416.7541
 kinetic energy error for atom=    0.0024 (will be added to EATOM!!)
  PAW_PBE Ni 02Aug2007                  :
 energy of atom  3       EATOM=-1077.6739
 kinetic energy error for atom=    0.0030 (will be added to EATOM!!)
  PAW_PBE O 08Apr2002                   :
 energy of atom  4       EATOM= -432.3788
 kinetic energy error for atom=    0.0208 (will be added to EATOM!!)
 
 
 POSCAR: SCEL5_5_1_1_0_3_1/4                     
  positions in direct lattice
  velocities in cartesian coordinates
 exchange correlation table for  LEXCH =        8
   RHO(1)=    0.500       N(1)  =     2000
   RHO(2)=  100.500       N(2)  =     4000
 


--------------------------------------------------------------------------------------------------------


 ion  position               nearest neighbor table
   1  0.800  0.200  0.600-  14 2.73  14 2.73  12 2.74  11 2.74  17 2.75  24 2.75  20 2.75  22 2.75
                            25 2.75  18 2.75  19 2.75  21 2.75   7 3.35   6 3.35   9 3.35  10 3.35
   2  0.603  0.400  0.207-  17 2.69  24 2.69  11 2.71  21 2.71  19 2.71  13 2.73  13 2.73  15 2.75
                            16 2.77  23 2.77  25 2.78  18 2.78   8 3.31   9 3.32   9 3.32   6 3.33
   3  0.394  0.598  0.788-  24 2.67  17 2.67  14 2.69  22 2.70  20 2.70  12 2.73  12 2.73  15 2.78
                            18 2.78  25 2.78  16 2.82  23 2.82   9 3.27   8 3.31   8 3.31  10 3.35
   4  0.206  0.802  0.412-  22 2.67  20 2.67  14 2.69  24 2.70  17 2.70  11 2.73  11 2.73  13 2.78
                            21 2.78  19 2.78  23 2.82  16 2.82  10 3.27   8 3.31   8 3.31   9 3.35
   5  0.997  1.000  0.993-  20 2.69  22 2.69  12 2.71  25 2.71  18 2.71  15 2.73  15 2.73  13 2.75
                            23 2.77  16 2.77  21 2.78  19 2.78   8 3.31  10 3.32  10 3.32   7 3.33
   6  0.600  0.902  0.200-  19 1.88  21 1.88  11 1.89  15 1.91  16 1.94  23 1.94   2 3.33   1 3.35
                             5 3.38   5 3.38   2 3.38   4 3.40   4 3.40
   7  0.000  0.498  0.000-  18 1.88  25 1.88  12 1.89  13 1.91  23 1.94  16 1.94   5 3.33   1 3.35
                             2 3.38   2 3.38   5 3.38   3 3.40   3 3.40
   8  0.800  0.700  0.600-  20 1.89  17 1.89  22 1.89  24 1.89  12 2.01  11 2.01   3 3.31   4 3.31
                             4 3.31   3 3.31   5 3.31   2 3.31   1 3.35   1 3.35
   9  0.200  0.300  0.400-  14 1.95  24 1.97  17 1.97  13 1.97  19 1.98  21 1.98   3 3.27   2 3.32
                             2 3.32   4 3.35   1 3.35   1 3.35   4 3.36
  10  0.400  0.100  0.800-  14 1.95  22 1.97  20 1.97  15 1.97  18 1.98  25 1.98   4 3.27   5 3.32
                             5 3.32   3 3.35   1 3.35   1 3.35   3 3.36
  11  0.696  0.803  0.393-   6 1.89   8 2.01   2 2.71   4 2.73   4 2.73   1 2.74
  12  0.904  0.597  0.807-   7 1.89   8 2.01   5 2.71   3 2.73   3 2.73   1 2.74
  13  0.098  0.401  0.197-   7 1.91   9 1.97   2 2.73   2 2.73   5 2.75   4 2.78
  14  0.300  0.200  0.600-  10 1.95   9 1.95   3 2.69   4 2.69   1 2.73   1 2.73
  15  0.502  0.999  0.003-   6 1.91  10 1.97   5 2.73   5 2.73   2 2.75   3 2.78
  16  0.800  0.700  0.100-   6 1.94   7 1.94   5 2.77   2 2.77   4 2.82   3 2.82
  17  0.996  0.504  0.501-   8 1.89   9 1.97   3 2.67   2 2.69   4 2.70   1 2.75
  18  0.196  0.305  0.903-   7 1.88  10 1.98   5 2.71   1 2.75   2 2.78   3 2.78
  19  0.404  0.095  0.297-   6 1.88   9 1.98   2 2.71   1 2.75   5 2.78   4 2.78
  20  0.604  0.896  0.699-   8 1.89  10 1.97   4 2.67   5 2.69   3 2.70   1 2.75
  21  0.892  0.095  0.297-   6 1.88   9 1.98   2 2.71   1 2.75   5 2.78   4 2.78
  22  0.095  0.896  0.699-   8 1.89  10 1.97   4 2.67   5 2.69   3 2.70   1 2.75
  23  0.300  0.700  0.100-   6 1.94   7 1.94   5 2.77   2 2.77   4 2.82   3 2.82
  24  0.505  0.504  0.501-   8 1.89   9 1.97   3 2.67   2 2.69   4 2.70   1 2.75
  25  0.708  0.305  0.903-   7 1.88  10 1.98   5 2.71   1 2.75   2 2.78   3 2.78
 
  LATTYP: Found a base centered monoclinic cell.
 ALAT       =    16.5030663801
 B/A-ratio  =     0.3306478292
 C/A-ratio  =     0.9691302705
 COS(beta)  =    -0.8690440160
  
  Lattice vectors:
  
 A1 = (  -3.8613029169,   0.0028311700,  -7.7860152752)
 A2 = (  -0.0028311700,   3.8613029169,  -7.7860152752)
 A3 = (   7.7253624565,  -7.7253624565,  11.6804738102)


Analysis of symmetry for initial positions (statically):
=====================================================================
 Subroutine PRICEL returns:
 Original cell was already a primitive cell.
 

 Routine SETGRP: Setting up the symmetry group for a 
 base centered monoclinic supercell.


 Subroutine GETGRP returns: Found  4 space group operations
 (whereof  2 operations were pure point group operations)
 out of a pool of  4 trial point group operations.


The static configuration has the point symmetry C_1h.
 The point group associated with its full space group is C_2h.


Analysis of symmetry for dynamics (positions and initial velocities):
=====================================================================
 Subroutine PRICEL returns:
 Original cell was already a primitive cell.
 

 Routine SETGRP: Setting up the symmetry group for a 
 base centered monoclinic supercell.


 Subroutine GETGRP returns: Found  4 space group operations
 (whereof  2 operations were pure point group operations)
 out of a pool of  4 trial point group operations.


The dynamic configuration has the point symmetry C_1h.
 The point group associated with its full space group is C_2h.


Analysis of structural, dynamic, and magnetic symmetry:
=====================================================================
 Subroutine PRICEL returns:
 Original cell was already a primitive cell.
 

 Routine SETGRP: Setting up the symmetry group for a 
 base centered monoclinic supercell.


 Subroutine GETGRP returns: Found  4 space group operations
 (whereof  2 operations were pure point group operations)
 out of a pool of  4 trial point group operations.


The magnetic configuration has the point symmetry C_1h.
 The point group associated with its full space group is C_2h.


 Subroutine INISYM returns: Found  4 space group operations
 (whereof  2 operations are pure point group operations),
 and found     1 'primitive' translations

 
 
 KPOINTS: Automatic mesh                          

Automatic generation of k-mesh.
 generate k-points for:    4    3    3
Space group operators:
 irot       det(A)        alpha          n_x          n_y          n_z        tau_x        tau_y        tau_z
    1     1.000000     0.000000     1.000000     0.000000     0.000000     0.000000     0.000000     0.000000
    2    -1.000000   180.000000     0.707107     0.707107    -0.000000     0.000000     0.000000     0.000000
    3    -1.000000     0.000000     1.000000     0.000000     0.000000    -0.400000    -0.600000    -0.800000
    4     1.000000   180.000000     0.707107     0.707107    -0.000000    -0.400000    -0.600000    -0.800000
 
 Subroutine IBZKPT returns following result:
 ===========================================
 
 Found     19 irreducible k-points:
 
 Following reciprocal coordinates:
            Coordinates               Weight
  0.000000  0.000000  0.000000      1.000000
  0.250000  0.000000 -0.000000      2.000000
  0.500000  0.000000 -0.000000      1.000000
  0.000000  0.333333  0.000000      2.000000
  0.250000  0.333333 -0.000000      2.000000
  0.500000  0.333333 -0.000000      2.000000
 -0.250000  0.333333  0.000000      2.000000
  0.000000  0.000000  0.333333      2.000000
  0.250000  0.000000  0.333333      2.000000
  0.500000 -0.000000  0.333333      2.000000
 -0.250000  0.000000  0.333333      2.000000
  0.000000  0.333333  0.333333      2.000000
  0.250000  0.333333  0.333333      2.000000
  0.500000  0.333333  0.333333      2.000000
 -0.250000  0.333333  0.333333      2.000000
  0.000000 -0.333333  0.333333      2.000000
  0.250000 -0.333333  0.333333      2.000000
  0.500000 -0.333333  0.333333      2.000000
 -0.250000 -0.333333  0.333333      2.000000
 
 Following cartesian coordinates:
            Coordinates               Weight
  0.000000  0.000000  0.000000      1.000000
 -0.038868 -0.025925 -0.012843      2.000000
 -0.077736 -0.051849 -0.025685      1.000000
 -0.034529  0.034529  0.017136      2.000000
 -0.073397  0.008604  0.004294      2.000000
 -0.112265 -0.017320 -0.008549      2.000000
  0.004339  0.060453  0.029979      2.000000
 -0.017258  0.017258 -0.034247      2.000000
 -0.056126 -0.008667 -0.047089      2.000000
 -0.094994 -0.034591 -0.059932      2.000000
  0.021610  0.043182 -0.021404      2.000000
 -0.051787  0.051787 -0.017111      2.000000
 -0.090655  0.025862 -0.029953      2.000000
 -0.129523 -0.000062 -0.042796      2.000000
 -0.012919  0.077711 -0.004268      2.000000
  0.017271 -0.017271 -0.051383      2.000000
 -0.021597 -0.043195 -0.064226      2.000000
 -0.060465 -0.069120 -0.077068      2.000000
  0.056139  0.008654 -0.038541      2.000000
 
 TETIRR: Found    106 inequivalent tetrahedra from      216


--------------------------------------------------------------------------------------------------------




 Dimension of arrays:
   k-points           NKPTS =     19   k-points in BZ     NKDIM =     19   number of bands    NBANDS=    122
   number of dos      NEDOS =    301   number of ions     NIONS =     25
   non local maximal  LDIM  =      8   non local SUM 2l+1 LMDIM =     32
   total plane-waves  NPLWV = 147000
   max r-space proj   IRMAX =   9197   max aug-charges    IRDMAX=  26682
   dimension x,y,z NGX =    42 NGY =   50 NGZ =   70
   dimension x,y,z NGXF=    84 NGYF=  100 NGZF=  140
   support grid    NGXF=    84 NGYF=  100 NGZF=  140
   ions per type =               5   2   3  15
   NGX,Y,Z   is equivalent  to a cutoff of  12.80, 12.40, 13.39 a.u.
   NGXF,Y,Z  is equivalent  to a cutoff of  25.59, 24.79, 26.78 a.u.

 SYSTEM =  final                                   
 POSCAR =  SCEL5_5_1_1_0_3_1/4                     

 Startparameter for this run:
   NWRITE =      2    write-flag & timer
   PREC   = accura    normal or accurate (medium, high low for compatibility)
   ISTART =      0    job   : 0-new  1-cont  2-samecut
   ICHARG =      1    charge: 1-file 2-atom 10-const
   ISPIN  =      2    spin polarized calculation?
   LNONCOLLINEAR =      F non collinear calculations
   LSORBIT =      F    spin-orbit coupling
   INIWAV =      1    electr: 0-lowe 1-rand  2-diag
   LASPH  =      F    aspherical Exc in radial PAW
   METAGGA=      F    non-selfconsistent MetaGGA calc.

 Electronic Relaxation 1
   ENCUT  =  520.0 eV  38.22 Ry    6.18 a.u.  10.15 12.47 16.16*2*pi/ulx,y,z
   ENINI  =  520.0     initial cutoff
   ENAUG  =  605.4 eV  augmentation charge cutoff
   NELM   =    100;   NELMIN=  2; NELMDL= -5     # of ELM steps 
   EDIFF  = 0.1E-02   stopping-criterion for ELM
   LREAL  =      T    real-space projection
   NLSPLINE    = F    spline interpolate recip. space projectors
   LCOMPAT=      F    compatible to vasp.4.4
   GGA_COMPAT  = T    GGA compatible to vasp.4.4-vasp.4.6
   LMAXPAW     = -100 max onsite density
   LMAXMIX     =    6 max onsite mixed and CHGCAR
   VOSKOWN=      0    Vosko Wilk Nusair interpolation
   ROPT   =   -0.00025  -0.00025  -0.00025  -0.00025
 Ionic relaxation
   EDIFFG = 0.1E-01   stopping-criterion for IOM
   NSW    =      0    number of steps for IOM
   NBLOCK =      1;   KBLOCK =      1    inner block; outer block 
   IBRION =     -1    ionic relax: 0-MD 1-quasi-New 2-CG
   NFREE  =      0    steps in history (QN), initial steepest desc. (CG)
   ISIF   =      2    stress and relaxation
   IWAVPR =     10    prediction:  0-non 1-charg 2-wave 3-comb
   ISYM   =      2    0-nonsym 1-usesym 2-fastsym
   LCORR  =      T    Harris-Foulkes like correction to forces

   POTIM  = 0.5000    time-step for ionic-motion
   TEIN   =    0.0    initial temperature
   TEBEG  =    0.0;   TEEND  =   0.0 temperature during run
   SMASS  =  -3.00    Nose mass-parameter (am)
   estimated Nose-frequenzy (Omega)   =  0.10E-29 period in steps =****** mass=  -0.680E-27a.u.
   SCALEE = 1.0000    scale energy and forces
   NPACO  =    256;   APACO  = 16.0  distance and # of slots for P.C.
   PSTRESS=    0.0 pullay stress

  Mass of Ions in am
   POMASS = 138.90 54.94 58.69 16.00
  Ionic Valenz
   ZVAL   =  11.00  7.00 10.00  6.00
  Atomic Wigner-Seitz radii
   RWIGS  =  -1.00 -1.00 -1.00 -1.00
  virtual crystal weights 
   VCA    =   1.00  1.00  1.00  1.00
   NELECT =     189.0000    total number of electrons
   NUPDOWN=      -1.0000    fix difference up-down

 DOS related values:
   EMIN   =  10.00;   EMAX   =-10.00  energy-range for DOS
   EFERMI =   0.00
   ISMEAR =    -5;   SIGMA  =   0.05  broadening in eV -4-tet -1-fermi 0-gaus

 Electronic relaxation 2 (details)
   IALGO  =     68    algorithm
   LDIAG  =      T    sub-space diagonalisation (order eigenvalues)
   LSUBROT=      F    optimize rotation matrix (better conditioning)
   TURBO    =      0    0=normal 1=particle mesh
   IRESTART =      0    0=no restart 2=restart with 2 vectors
   NREBOOT  =      0    no. of reboots
   NMIN     =      0    reboot dimension
   EREF     =   0.00    reference energy to select bands
   IMIX   =      4    mixing-type and parameters
     AMIX     =   0.40;   BMIX     =  1.00
     AMIX_MAG =   1.60;   BMIX_MAG =  1.00
     AMIN     =   0.10
     WC   =   100.;   INIMIX=   1;  MIXPRE=   1;  MAXMIX= -45

 Intra band minimization:
   WEIMIN = 0.0000     energy-eigenvalue tresh-hold
   EBREAK =  0.20E-05  absolut break condition
   DEPER  =   0.30     relativ break condition  

   TIME   =   0.40     timestep for ELM

  volume/ion in A,a.u.               =      11.60        78.29
  Fermi-wavevector in a.u.,A,eV,Ry     =   1.419338  2.682159 27.409204  2.014520
  Thomas-Fermi vector in A             =   2.540369
 
 Write flags
   LWAVE        =      F    write WAVECAR
   LDOWNSAMPLE  =      F    k-point downsampling of WAVECAR
   LCHARG       =      T    write CHGCAR
   LVTOT        =      F    write LOCPOT, total local potential
   LVHAR        =      F    write LOCPOT, Hartree potential only
   LELF         =      F    write electronic localiz. function (ELF)
   LORBIT       =     11    0 simple, 1 ext, 2 COOP (PROOUT), +10 PAW based schemes


 Dipole corrections
   LMONO  =      F    monopole corrections only (constant potential shift)
   LDIPOL =      F    correct potential (dipole corrections)
   IDIPOL =      0    1-x, 2-y, 3-z, 4-all directions 
   EPSILON=  1.0000000 bulk dielectric constant

 LDA+U is selected, type is set to LDAUTYPE =  2
   angular momentum for each species LDAUL =     0    2    2    0
   U (eV)           for each species LDAUU =   0.0  3.9  6.2  0.0
   J (eV)           for each species LDAUJ =   0.0  0.0  0.0  0.0
 Exchange correlation treatment:
   GGA     =    --    GGA type
   LEXCH   =     8    internal setting for exchange type
   VOSKOWN=      0    Vosko Wilk Nusair interpolation
   LHFCALC =     F    Hartree Fock is set to
   LHFONE  =     F    Hartree Fock one center treatment
   AEXX    =    0.0000 exact exchange contribution

 Linear response parameters
   LEPSILON=     F    determine dielectric tensor
   LRPA    =     F    only Hartree local field effects (RPA)
   LNABLA  =     F    use nabla operator in PAW spheres
   LVEL    =     F    velocity operator in full k-point grid
   LINTERFAST=   F  fast interpolation
   KINTER  =     0    interpolate to denser k-point grid
   CSHIFT  =0.1000    complex shift for real part using Kramers Kronig
   OMEGAMAX=  -1.0    maximum frequency
   DEG_THRESHOLD= 0.2000000E-02 threshold for treating states as degnerate
   RTIME   =   -0.100 relaxation time in fs
  (WPLASMAI=    0.000 imaginary part of plasma frequency in eV, 0.658/RTIME)
   DFIELD  = 0.0000000 0.0000000 0.0000000 field for delta impulse in time
 
 Orbital magnetization related:
   ORBITALMAG=     F  switch on orbital magnetization
   LCHIMAG   =     F  perturbation theory with respect to B field
   DQ        =  0.001000  dq finite difference perturbation B field
   LLRAUG    =     F  two centre corrections for induced B field



--------------------------------------------------------------------------------------------------------


 Static calculation
 charge density and potential will be updated during run
 spin polarized calculation
 RMM-DIIS sequential band-by-band and
  variant of blocked Davidson during initial phase
 perform sub-space diagonalisation
    before iterative eigenvector-optimisation
 modified Broyden-mixing scheme, WC =      100.0
 initial mixing is a Kerker type mixing with AMIX =  0.4000 and BMIX =      1.0000
 Hartree-type preconditioning will be used
 using additional bands           27
 real space projection scheme for non local part
 use partial core corrections
 calculate Harris-corrections to forces 
   (improved forces if not selfconsistent)
 use gradient corrections 
 use of overlap-Matrix (Vanderbilt PP)
 Fermi weights with tetrahedron method with Bloechl corrections


--------------------------------------------------------------------------------------------------------


  energy-cutoff  :      520.00
  volume of cell :      290.02
      direct lattice vectors                 reciprocal lattice vectors
    -3.858471747 -3.858471747  0.000000000    -0.155471861 -0.103698107 -0.051370261
    -3.861228370  3.861228370  3.891556740    -0.103586113  0.103586113  0.051408919
    -0.002831170  3.861302917 -7.786015275    -0.051773753  0.051773753 -0.102740522

  length of vectors
     5.456703074  6.705399534  8.690897658     0.193813572  0.155251546  0.126161238


 
 k-points in units of 2pi/SCALE and weight: Automatic mesh                          
   0.00000000  0.00000000  0.00000000       0.028
  -0.03886797 -0.02592453 -0.01284257       0.056
  -0.07773593 -0.05184905 -0.02568513       0.028
  -0.03452870  0.03452870  0.01713631       0.056
  -0.07339667  0.00860418  0.00429374       0.056
  -0.11226463 -0.01732035 -0.00854882       0.056
   0.00433926  0.06045323  0.02997887       0.056
  -0.01725792  0.01725792 -0.03424684       0.056
  -0.05612588 -0.00866661 -0.04708941       0.056
  -0.09499385 -0.03459114 -0.05993197       0.056
   0.02161005  0.04318244 -0.02140428       0.056
  -0.05178662  0.05178662 -0.01711053       0.056
  -0.09065459  0.02586210 -0.02995310       0.056
  -0.12952255 -0.00006243 -0.04279566       0.056
  -0.01291866  0.07771115 -0.00426797       0.056
   0.01727079 -0.01727079 -0.05138315       0.056
  -0.02159718 -0.04319531 -0.06422571       0.056
  -0.06046514 -0.06911984 -0.07706828       0.056
   0.05613875  0.00865374 -0.03854058       0.056
 
 k-points in reciprocal lattice and weights: Automatic mesh                          
   0.00000000  0.00000000  0.00000000       0.028
   0.25000000  0.00000000 -0.00000000       0.056
   0.50000000  0.00000000 -0.00000000       0.028
   0.00000000  0.33333333  0.00000000       0.056
   0.25000000  0.33333333 -0.00000000       0.056
   0.50000000  0.33333333 -0.00000000       0.056
  -0.25000000  0.33333333  0.00000000       0.056
   0.00000000  0.00000000  0.33333333       0.056
   0.25000000  0.00000000  0.33333333       0.056
   0.50000000 -0.00000000  0.33333333       0.056
  -0.25000000  0.00000000  0.33333333       0.056
   0.00000000  0.33333333  0.33333333       0.056
   0.25000000  0.33333333  0.33333333       0.056
   0.50000000  0.33333333  0.33333333       0.056
  -0.25000000  0.33333333  0.33333333       0.056
   0.00000000 -0.33333333  0.33333333       0.056
   0.25000000 -0.33333333  0.33333333       0.056
   0.50000000 -0.33333333  0.33333333       0.056
  -0.25000000 -0.33333333  0.33333333       0.056
 
 position of ions in fractional coordinates (direct lattice) 
   0.80000000  0.20000000  0.60000000
   0.60339960  0.40033002  0.20679919
   0.39418326  0.59757435  0.78836653
   0.20581674  0.80242565  0.41163347
   0.99660040  0.99966998  0.99320081
   0.59986832  0.90164385  0.19973665
   0.00013168  0.49835615  0.00026335
   0.80000000  0.70000000  0.60000000
   0.19976836  0.29958812  0.39953671
   0.40023164  0.10041188  0.80046329
   0.69646781  0.80263915  0.39293561
   0.90353219  0.59736085  0.80706439
   0.09839445  0.40132429  0.19678890
   0.30000000  0.20000000  0.60000000
   0.50160555  0.99867571  0.00321110
   0.80000000  0.70000000  0.10000000
   0.99553968  0.50415324  0.50092977
   0.19566684  0.30454367  0.90346461
   0.40433316  0.09545633  0.29653539
   0.60446032  0.89584676  0.69907023
   0.89220223  0.09545633  0.29653539
   0.09460991  0.89584676  0.69907023
   0.30000000  0.70000000  0.10000000
   0.50539009  0.50415324  0.50092977
   0.70779777  0.30454367  0.90346461
 
 position of ions in cartesian coordinates  (Angst):
  -3.86072177  0.00225003 -3.89329782
  -3.87455139  0.01607964 -0.05223468
  -3.83054802  3.83054802 -3.81273932
  -3.89365215  3.89365215 -0.08229958
  -7.70812053  3.84964878 -3.84280422
  -5.79659328  1.93812153  1.95364559
  -1.92477572  1.92477572  1.93733079
  -5.79133596  1.93286421 -1.94751945
  -1.92870987  1.92870987 -1.94493478
  -1.93426193  1.93426193 -5.84166086
  -5.78758689  1.92911514  0.06411312
  -5.79508503  1.93661328 -3.95915202
  -1.92981408  1.92981408  0.02957486
  -1.93148590  1.93148590 -3.89329782
  -5.79155492  1.93308317  3.86140152
  -5.78992037  0.00221275  1.94548819
  -5.78933072  0.03963064 -1.93830587
  -1.93344550  3.90948820 -5.84924030
  -1.92952630 -0.04651640 -1.93735533
  -5.79334120  3.82609778 -1.95673302
  -3.81195535 -1.92894545 -1.93735533
  -3.82609778  5.79334120 -1.95673302
  -3.86068450  1.93144863  1.94548819
  -3.89810239  1.93085897 -1.93830587
  -3.90948820  1.93344550 -5.84924030
 


--------------------------------------------------------------------------------------------------------


 k-point  1 :   0.0000 0.0000 0.0000  plane waves:    7827
 k-point  2 :   0.2500 0.0000-0.0000  plane waves:    7817
 k-point  3 :   0.5000 0.0000-0.0000  plane waves:    7852
 k-point  4 :   0.0000 0.3333 0.0000  plane waves:    7812
 k-point  5 :   0.2500 0.3333-0.0000  plane waves:    7794
 k-point  6 :   0.5000 0.3333-0.0000  plane waves:    7814
 k-point  7 :  -0.2500 0.3333 0.0000  plane waves:    7812
 k-point  8 :   0.0000 0.0000 0.3333  plane waves:    7781
 k-point  9 :   0.2500 0.0000 0.3333  plane waves:    7827
 k-point 10 :   0.5000-0.0000 0.3333  plane waves:    7834
 k-point 11 :  -0.2500 0.0000 0.3333  plane waves:    7818
 k-point 12 :   0.0000 0.3333 0.3333  plane waves:    7785
 k-point 13 :   0.2500 0.3333 0.3333  plane waves:    7811
 k-point 14 :   0.5000 0.3333 0.3333  plane waves:    7810
 k-point 15 :  -0.2500 0.3333 0.3333  plane waves:    7802
 k-point 16 :   0.0000-0.3333 0.3333  plane waves:    7824
 k-point 17 :   0.2500-0.3333 0.3333  plane waves:    7809
 k-point 18 :   0.5000-0.3333 0.3333  plane waves:    7801
 k-point 19 :  -0.2500-0.3333 0.3333  plane waves:    7819

 maximum and minimum number of plane-waves per node :       803      757

 maximum number of plane-waves:      7852
 maximum index in each direction: 
   IXMAX=   10   IYMAX=   12   IZMAX=   16
   IXMIN=  -10   IYMIN=  -12   IZMIN=  -16


 real space projection operators:
  total allocation   :      18704.83 KBytes
  max/ min on nodes  :       2225.44       1747.06


 parallel 3D FFT for wavefunctions:
    minimum data exchange during FFTs selected (reduces bandwidth)
 parallel 3D FFT for charge:
    minimum data exchange during FFTs selected (reduces bandwidth)


 total amount of memory used by VASP MPI-rank0    79190. kBytes
=======================================================================

   base      :      30000. kBytes
   nonlr-proj:       6643. kBytes
   fftplans  :       2817. kBytes
   grid      :       8208. kBytes
   one-center:        294. kBytes
   wavefun   :      31228. kBytes
 
     INWAV:  cpu time    0.0000: real time    0.0001
 Broyden mixing: mesh for mixing (old mesh)
   NGX = 21   NGY = 25   NGZ = 33
  (NGX  = 84   NGY  =100   NGZ  =140)
  gives a total of  17325 points

 initial charge density was supplied:
 charge density of overlapping atoms calculated
 number of electron     189.0000000 magnetization      17.0000000
 keeping initial charge density in first step


--------------------------------------------------------------------------------------------------------


 Maximum index for non-local projection operator         1311
 Maximum index for augmentation-charges         2025 (set IRDMAX)


--------------------------------------------------------------------------------------------------------


 First call to EWALD:  gamma=   0.268
 Maximum number of real-space cells 3x 3x 2
 Maximum number of reciprocal cells 2x 3x 3

    FEWALD:  cpu time    0.0016: real time    0.0017


--------------------------------------- Iteration      1(   1)  ---------------------------------------


    POTLOK:  cpu time    0.0749: real time    0.0768
    SETDIJ:  cpu time    0.0153: real time    0.0154
atom =   1  type =  1  l = 0
 
 onsite density matrix
 
spin component  1
 
  1.0989
 
spin component  2
 
  1.0989
 
 occupancies and eigenvectors
 
  o =  1.0989  v =  1.0000  0.0000      0.0000  0.0000
  o =  1.0989  v =  0.0000  1.0000      0.0000  0.0000
atom =   2  type =  1  l = 0
 
 onsite density matrix
 
spin component  1
 
  1.0989
 
spin component  2
 
  1.0989
 
 occupancies and eigenvectors
 
  o =  1.0989  v =  1.0000  0.0000      0.0000  0.0000
  o =  1.0989  v =  0.0000  1.0000      0.0000  0.0000
atom =   3  type =  1  l = 0
 
 onsite density matrix
 
spin component  1
 
  1.0989
 
spin component  2
 
  1.0989
 
 occupancies and eigenvectors
 
  o =  1.0989  v =  1.0000  0.0000      0.0000  0.0000
  o =  1.0989  v =  0.0000  1.0000      0.0000  0.0000
atom =   4  type =  1  l = 0
 
 onsite density matrix
 
spin component  1
 
  1.0989
 
spin component  2
 
  1.0989
 
 occupancies and eigenvectors
 
  o =  1.0989  v =  1.0000  0.0000      0.0000  0.0000
  o =  1.0989  v =  0.0000  1.0000      0.0000  0.0000
atom =   5  type =  1  l = 0
 
 onsite density matrix
 
spin component  1
 
  1.0989
 
spin component  2
 
  1.0989
 
 occupancies and eigenvectors
 
  o =  1.0989  v =  1.0000  0.0000      0.0000  0.0000
  o =  1.0989  v =  0.0000  1.0000      0.0000  0.0000
atom =   6  type =  2  l = 2
 
 onsite density matrix
 
spin component  1
 
  0.8272  0.0000  0.0000  0.0000  0.0000
  0.0000  0.8272  0.0000  0.0000  0.0000
  0.0000  0.0000  0.8272  0.0000  0.0000
  0.0000  0.0000  0.0000  0.8272  0.0000
  0.0000  0.0000  0.0000  0.0000  0.8272
 
spin component  2
 
  0.2256  0.0000  0.0000  0.0000  0.0000
  0.0000  0.2256  0.0000  0.0000  0.0000
  0.0000  0.0000  0.2256  0.0000  0.0000
  0.0000  0.0000  0.0000  0.2256  0.0000
  0.0000  0.0000  0.0000  0.0000  0.2256
 
 occupancies and eigenvectors
 
  o =  0.2256  v =  0.0000  0.0000  0.0000  0.0000  0.0000  0.0000  0.0000  1.0000  0.0000  0.0000      0.0000  0.0000  0.0000  0.0000  0.0000  0.0000  0.0000  0.0000  0.0000  0.0000
  o =  0.2256  v =  0.0000  0.0000  0.0000  0.0000  0.0000  1.0000  0.0000  0.0000  0.0000  0.0000      0.0000  0.0000  0.0000  0.0000  0.0000  0.0000  0.0000  0.0000  0.0000  0.0000
  o =  0.2256  v =  0.0000  0.0000  0.0000  0.0000  0.0000  0.0000  1.0000  0.0000  0.0000  0.0000      0.0000  0.0000  0.0000  0.0000  0.0000  0.0000  0.0000  0.0000  0.0000  0.0000
  o =  0.2256  v =  0.0000  0.0000  0.0000  0.0000  0.0000  0.0000  0.0000  0.0000  1.0000  0.0000      0.0000  0.0000  0.0000  0.0000  0.0000  0.0000  0.0000  0.0000  0.0000  0.0000
  o =  0.2256  v =  0.0000  0.0000  0.0000  0.0000  0.0000  0.0000  0.0000  0.0000  0.0000  1.0000      0.0000  0.0000  0.0000  0.0000  0.0000  0.0000  0.0000  0.0000  0.0000  0.0000
  o =  0.8272  v =  0.0000  1.0000  0.0000  0.0000  0.0000  0.0000  0.0000  0.0000  0.0000  0.0000      0.0000  0.0000  0.0000  0.0000  0.0000  0.0000  0.0000  0.0000  0.0000  0.0000
  o =  0.8272  v =  0.0000  0.0000  1.0000  0.0000  0.0000  0.0000  0.0000  0.0000  0.0000  0.0000      0.0000  0.0000  0.0000  0.0000  0.0000  0.0000  0.0000  0.0000  0.0000  0.0000
  o =  0.8272  v =  1.0000  0.0000  0.0000  0.0000  0.0000  0.0000  0.0000  0.0000  0.0000  0.0000      0.0000  0.0000  0.0000  0.0000  0.0000  0.0000  0.0000  0.0000  0.0000  0.0000
  o =  0.8272  v =  0.0000  0.0000  0.0000  1.0000  0.0000  0.0000  0.0000  0.0000  0.0000  0.0000      0.0000  0.0000  0.0000  0.0000  0.0000  0.0000  0.0000  0.0000  0.0000  0.0000
  o =  0.8272  v =  0.0000  0.0000  0.0000  0.0000  1.0000  0.0000  0.0000  0.0000  0.0000  0.0000      0.0000  0.0000  0.0000  0.0000  0.0000  0.0000  0.0000  0.0000  0.0000  0.0000
atom =   7  type =  2  l = 2
 
 onsite density matrix
 
spin component  1
 
  0.8272  0.0000  0.0000  0.0000  0.0000
  0.0000  0.8272  0.0000  0.0000  0.0000
  0.0000  0.0000  0.8272  0.0000  0.0000
  0.0000  0.0000  0.0000  0.8272  0.0000
  0.0000  0.0000  0.0000  0.0000  0.8272
 
spin component  2
 
  0.2256  0.0000  0.0000  0.0000  0.0000
  0.0000  0.2256  0.0000  0.0000  0.0000
  0.0000  0.0000  0.2256  0.0000  0.0000
  0.0000  0.0000  0.0000  0.2256  0.0000
  0.0000  0.0000  0.0000  0.0000  0.2256
 
 occupancies and eigenvectors
 
  o =  0.2256  v =  0.0000  0.0000  0.0000  0.0000  0.0000  0.0000  0.0000  1.0000  0.0000  0.0000      0.0000  0.0000  0.0000  0.0000  0.0000  0.0000  0.0000  0.0000  0.0000  0.0000
  o =  0.2256  v =  0.0000  0.0000  0.0000  0.0000  0.0000  1.0000  0.0000  0.0000  0.0000  0.0000      0.0000  0.0000  0.0000  0.0000  0.0000  0.0000  0.0000  0.0000  0.0000  0.0000
  o =  0.2256  v =  0.0000  0.0000  0.0000  0.0000  0.0000  0.0000  1.0000  0.0000  0.0000  0.0000      0.0000  0.0000  0.0000  0.0000  0.0000  0.0000  0.0000  0.0000  0.0000  0.0000
  o =  0.2256  v =  0.0000  0.0000  0.0000  0.0000  0.0000  0.0000  0.0000  0.0000  1.0000  0.0000      0.0000  0.0000  0.0000  0.0000  0.0000  0.0000  0.0000  0.0000  0.0000  0.0000
  o =  0.2256  v =  0.0000  0.0000  0.0000  0.0000  0.0000  0.0000  0.0000  0.0000  0.0000  1.0000      0.0000  0.0000  0.0000  0.0000  0.0000  0.0000  0.0000  0.0000  0.0000  0.0000
  o =  0.8272  v =  0.0000  1.0000  0.0000  0.0000  0.0000  0.0000  0.0000  0.0000  0.0000  0.0000      0.0000  0.0000  0.0000  0.0000  0.0000  0.0000  0.0000  0.0000  0.0000  0.0000
  o =  0.8272  v =  0.0000  0.0000  1.0000  0.0000  0.0000  0.0000  0.0000  0.0000  0.0000  0.0000      0.0000  0.0000  0.0000  0.0000  0.0000  0.0000  0.0000  0.0000  0.0000  0.0000
  o =  0.8272  v =  1.0000  0.0000  0.0000  0.0000  0.0000  0.0000  0.0000  0.0000  0.0000  0.0000      0.0000  0.0000  0.0000  0.0000  0.0000  0.0000  0.0000  0.0000  0.0000  0.0000
  o =  0.8272  v =  0.0000  0.0000  0.0000  1.0000  0.0000  0.0000  0.0000  0.0000  0.0000  0.0000      0.0000  0.0000  0.0000  0.0000  0.0000  0.0000  0.0000  0.0000  0.0000  0.0000
  o =  0.8272  v =  0.0000  0.0000  0.0000  0.0000  1.0000  0.0000  0.0000  0.0000  0.0000  0.0000      0.0000  0.0000  0.0000  0.0000  0.0000  0.0000  0.0000  0.0000  0.0000  0.0000
atom =   8  type =  3  l = 2
 
 onsite density matrix
 
spin component  1
 
  1.1008  0.0000  0.0000  0.0000  0.0000
  0.0000  1.1008  0.0000  0.0000  0.0000
  0.0000  0.0000  1.1008  0.0000  0.0000
  0.0000  0.0000  0.0000  1.1008  0.0000
  0.0000  0.0000  0.0000  0.0000  1.1008
 
spin component  2
 
  0.5927  0.0000  0.0000  0.0000  0.0000
  0.0000  0.5927  0.0000  0.0000  0.0000
  0.0000  0.0000  0.5927  0.0000  0.0000
  0.0000  0.0000  0.0000  0.5927  0.0000
  0.0000  0.0000  0.0000  0.0000  0.5927
 
 occupancies and eigenvectors
 
  o =  0.5927  v =  0.0000  0.0000  0.0000  0.0000  0.0000  1.0000  0.0000  0.0000  0.0000  0.0000      0.0000  0.0000  0.0000  0.0000  0.0000  0.0000  0.0000  0.0000  0.0000  0.0000
  o =  0.5927  v =  0.0000  0.0000  0.0000  0.0000  0.0000  0.0000  1.0000  0.0000  0.0000  0.0000      0.0000  0.0000  0.0000  0.0000  0.0000  0.0000  0.0000  0.0000  0.0000  0.0000
  o =  0.5927  v =  0.0000  0.0000  0.0000  0.0000  0.0000  0.0000  0.0000  1.0000  0.0000  0.0000      0.0000  0.0000  0.0000  0.0000  0.0000  0.0000  0.0000  0.0000  0.0000  0.0000
  o =  0.5927  v =  0.0000  0.0000  0.0000  0.0000  0.0000  0.0000  0.0000  0.0000  1.0000  0.0000      0.0000  0.0000  0.0000  0.0000  0.0000  0.0000  0.0000  0.0000  0.0000  0.0000
  o =  0.5927  v =  0.0000  0.0000  0.0000  0.0000  0.0000  0.0000  0.0000  0.0000  0.0000  1.0000      0.0000  0.0000  0.0000  0.0000  0.0000  0.0000  0.0000  0.0000  0.0000  0.0000
  o =  1.1008  v =  1.0000  0.0000  0.0000  0.0000  0.0000  0.0000  0.0000  0.0000  0.0000  0.0000      0.0000  0.0000  0.0000  0.0000  0.0000  0.0000  0.0000  0.0000  0.0000  0.0000
  o =  1.1008  v =  0.0000  1.0000  0.0000  0.0000  0.0000  0.0000  0.0000  0.0000  0.0000  0.0000      0.0000  0.0000  0.0000  0.0000  0.0000  0.0000  0.0000  0.0000  0.0000  0.0000
  o =  1.1008  v =  0.0000  0.0000  1.0000  0.0000  0.0000  0.0000  0.0000  0.0000  0.0000  0.0000      0.0000  0.0000  0.0000  0.0000  0.0000  0.0000  0.0000  0.0000  0.0000  0.0000
  o =  1.1008  v =  0.0000  0.0000  0.0000  1.0000  0.0000  0.0000  0.0000  0.0000  0.0000  0.0000      0.0000  0.0000  0.0000  0.0000  0.0000  0.0000  0.0000  0.0000  0.0000  0.0000
  o =  1.1008  v =  0.0000  0.0000  0.0000  0.0000  1.0000  0.0000  0.0000  0.0000  0.0000  0.0000      0.0000  0.0000  0.0000  0.0000  0.0000  0.0000  0.0000  0.0000  0.0000  0.0000
atom =   9  type =  3  l = 2
 
 onsite density matrix
 
spin component  1
 
  1.1008  0.0000  0.0000  0.0000  0.0000
  0.0000  1.1008  0.0000  0.0000  0.0000
  0.0000  0.0000  1.1008  0.0000  0.0000
  0.0000  0.0000  0.0000  1.1008  0.0000
  0.0000  0.0000  0.0000  0.0000  1.1008
 
spin component  2
 
  0.5927  0.0000  0.0000  0.0000  0.0000
  0.0000  0.5927  0.0000  0.0000  0.0000
  0.0000  0.0000  0.5927  0.0000  0.0000
  0.0000  0.0000  0.0000  0.5927  0.0000
  0.0000  0.0000  0.0000  0.0000  0.5927
 
 occupancies and eigenvectors
 
  o =  0.5927  v =  0.0000  0.0000  0.0000  0.0000  0.0000  1.0000  0.0000  0.0000  0.0000  0.0000      0.0000  0.0000  0.0000  0.0000  0.0000  0.0000  0.0000  0.0000  0.0000  0.0000
  o =  0.5927  v =  0.0000  0.0000  0.0000  0.0000  0.0000  0.0000  1.0000  0.0000  0.0000  0.0000      0.0000  0.0000  0.0000  0.0000  0.0000  0.0000  0.0000  0.0000  0.0000  0.0000
  o =  0.5927  v =  0.0000  0.0000  0.0000  0.0000  0.0000  0.0000  0.0000  1.0000  0.0000  0.0000      0.0000  0.0000  0.0000  0.0000  0.0000  0.0000  0.0000  0.0000  0.0000  0.0000
  o =  0.5927  v =  0.0000  0.0000  0.0000  0.0000  0.0000  0.0000  0.0000  0.0000  1.0000  0.0000      0.0000  0.0000  0.0000  0.0000  0.0000  0.0000  0.0000  0.0000  0.0000  0.0000
  o =  0.5927  v =  0.0000  0.0000  0.0000  0.0000  0.0000  0.0000  0.0000  0.0000  0.0000  1.0000      0.0000  0.0000  0.0000  0.0000  0.0000  0.0000  0.0000  0.0000  0.0000  0.0000
  o =  1.1008  v =  1.0000  0.0000  0.0000  0.0000  0.0000  0.0000  0.0000  0.0000  0.0000  0.0000      0.0000  0.0000  0.0000  0.0000  0.0000  0.0000  0.0000  0.0000  0.0000  0.0000
  o =  1.1008  v =  0.0000  1.0000  0.0000  0.0000  0.0000  0.0000  0.0000  0.0000  0.0000  0.0000      0.0000  0.0000  0.0000  0.0000  0.0000  0.0000  0.0000  0.0000  0.0000  0.0000
  o =  1.1008  v =  0.0000  0.0000  1.0000  0.0000  0.0000  0.0000  0.0000  0.0000  0.0000  0.0000      0.0000  0.0000  0.0000  0.0000  0.0000  0.0000  0.0000  0.0000  0.0000  0.0000
  o =  1.1008  v =  0.0000  0.0000  0.0000  1.0000  0.0000  0.0000  0.0000  0.0000  0.0000  0.0000      0.0000  0.0000  0.0000  0.0000  0.0000  0.0000  0.0000  0.0000  0.0000  0.0000
  o =  1.1008  v =  0.0000  0.0000  0.0000  0.0000  1.0000  0.0000  0.0000  0.0000  0.0000  0.0000      0.0000  0.0000  0.0000  0.0000  0.0000  0.0000  0.0000  0.0000  0.0000  0.0000
atom =  10  type =  3  l = 2
 
 onsite density matrix
 
spin component  1
 
  1.1008  0.0000  0.0000  0.0000  0.0000
  0.0000  1.1008  0.0000  0.0000  0.0000
  0.0000  0.0000  1.1008  0.0000  0.0000
  0.0000  0.0000  0.0000  1.1008  0.0000
  0.0000  0.0000  0.0000  0.0000  1.1008
 
spin component  2
 
  0.5927  0.0000  0.0000  0.0000  0.0000
  0.0000  0.5927  0.0000  0.0000  0.0000
  0.0000  0.0000  0.5927  0.0000  0.0000
  0.0000  0.0000  0.0000  0.5927  0.0000
  0.0000  0.0000  0.0000  0.0000  0.5927
 
 occupancies and eigenvectors
 
  o =  0.5927  v =  0.0000  0.0000  0.0000  0.0000  0.0000  1.0000  0.0000  0.0000  0.0000  0.0000      0.0000  0.0000  0.0000  0.0000  0.0000  0.0000  0.0000  0.0000  0.0000  0.0000
  o =  0.5927  v =  0.0000  0.0000  0.0000  0.0000  0.0000  0.0000  1.0000  0.0000  0.0000  0.0000      0.0000  0.0000  0.0000  0.0000  0.0000  0.0000  0.0000  0.0000  0.0000  0.0000
  o =  0.5927  v =  0.0000  0.0000  0.0000  0.0000  0.0000  0.0000  0.0000  1.0000  0.0000  0.0000      0.0000  0.0000  0.0000  0.0000  0.0000  0.0000  0.0000  0.0000  0.0000  0.0000
  o =  0.5927  v =  0.0000  0.0000  0.0000  0.0000  0.0000  0.0000  0.0000  0.0000  1.0000  0.0000      0.0000  0.0000  0.0000  0.0000  0.0000  0.0000  0.0000  0.0000  0.0000  0.0000
  o =  0.5927  v =  0.0000  0.0000  0.0000  0.0000  0.0000  0.0000  0.0000  0.0000  0.0000  1.0000      0.0000  0.0000  0.0000  0.0000  0.0000  0.0000  0.0000  0.0000  0.0000  0.0000
  o =  1.1008  v =  1.0000  0.0000  0.0000  0.0000  0.0000  0.0000  0.0000  0.0000  0.0000  0.0000      0.0000  0.0000  0.0000  0.0000  0.0000  0.0000  0.0000  0.0000  0.0000  0.0000
  o =  1.1008  v =  0.0000  1.0000  0.0000  0.0000  0.0000  0.0000  0.0000  0.0000  0.0000  0.0000      0.0000  0.0000  0.0000  0.0000  0.0000  0.0000  0.0000  0.0000  0.0000  0.0000
  o =  1.1008  v =  0.0000  0.0000  1.0000  0.0000  0.0000  0.0000  0.0000  0.0000  0.0000  0.0000      0.0000  0.0000  0.0000  0.0000  0.0000  0.0000  0.0000  0.0000  0.0000  0.0000
  o =  1.1008  v =  0.0000  0.0000  0.0000  1.0000  0.0000  0.0000  0.0000  0.0000  0.0000  0.0000      0.0000  0.0000  0.0000  0.0000  0.0000  0.0000  0.0000  0.0000  0.0000  0.0000
  o =  1.1008  v =  0.0000  0.0000  0.0000  0.0000  1.0000  0.0000  0.0000  0.0000  0.0000  0.0000      0.0000  0.0000  0.0000  0.0000  0.0000  0.0000  0.0000  0.0000  0.0000  0.0000
atom =  11  type =  4  l = 0
 
 onsite density matrix
 
spin component  1
 
  0.8190
 
spin component  2
 
  0.8190
 
 occupancies and eigenvectors
 
  o =  0.8190  v =  1.0000  0.0000      0.0000  0.0000
  o =  0.8190  v =  0.0000  1.0000      0.0000  0.0000
atom =  12  type =  4  l = 0
 
 onsite density matrix
 
spin component  1
 
  0.8190
 
spin component  2
 
  0.8190
 
 occupancies and eigenvectors
 
  o =  0.8190  v =  1.0000  0.0000      0.0000  0.0000
  o =  0.8190  v =  0.0000  1.0000      0.0000  0.0000
atom =  13  type =  4  l = 0
 
 onsite density matrix
 
spin component  1
 
  0.8190
 
spin component  2
 
  0.8190
 
 occupancies and eigenvectors
 
  o =  0.8190  v =  1.0000  0.0000      0.0000  0.0000
  o =  0.8190  v =  0.0000  1.0000      0.0000  0.0000
atom =  14  type =  4  l = 0
 
 onsite density matrix
 
spin component  1
 
  0.8190
 
spin component  2
 
  0.8190
 
 occupancies and eigenvectors
 
  o =  0.8190  v =  1.0000  0.0000      0.0000  0.0000
  o =  0.8190  v =  0.0000  1.0000      0.0000  0.0000
atom =  15  type =  4  l = 0
 
 onsite density matrix
 
spin component  1
 
  0.8190
 
spin component  2
 
  0.8190
 
 occupancies and eigenvectors
 
  o =  0.8190  v =  1.0000  0.0000      0.0000  0.0000
  o =  0.8190  v =  0.0000  1.0000      0.0000  0.0000
atom =  16  type =  4  l = 0
 
 onsite density matrix
 
spin component  1
 
  0.8190
 
spin component  2
 
  0.8190
 
 occupancies and eigenvectors
 
  o =  0.8190  v =  1.0000  0.0000      0.0000  0.0000
  o =  0.8190  v =  0.0000  1.0000      0.0000  0.0000
atom =  17  type =  4  l = 0
 
 onsite density matrix
 
spin component  1
 
  0.8190
 
spin component  2
 
  0.8190
 
 occupancies and eigenvectors
 
  o =  0.8190  v =  1.0000  0.0000      0.0000  0.0000
  o =  0.8190  v =  0.0000  1.0000      0.0000  0.0000
atom =  18  type =  4  l = 0
 
 onsite density matrix
 
spin component  1
 
  0.8190
 
spin component  2
 
  0.8190
 
 occupancies and eigenvectors
 
  o =  0.8190  v =  1.0000  0.0000      0.0000  0.0000
  o =  0.8190  v =  0.0000  1.0000      0.0000  0.0000
atom =  19  type =  4  l = 0
 
 onsite density matrix
 
spin component  1
 
  0.8190
 
spin component  2
 
  0.8190
 
 occupancies and eigenvectors
 
  o =  0.8190  v =  1.0000  0.0000      0.0000  0.0000
  o =  0.8190  v =  0.0000  1.0000      0.0000  0.0000
atom =  20  type =  4  l = 0
 
 onsite density matrix
 
spin component  1
 
  0.8190
 
spin component  2
 
  0.8190
 
 occupancies and eigenvectors
 
  o =  0.8190  v =  1.0000  0.0000      0.0000  0.0000
  o =  0.8190  v =  0.0000  1.0000      0.0000  0.0000
atom =  21  type =  4  l = 0
 
 onsite density matrix
 
spin component  1
 
  0.8190
 
spin component  2
 
  0.8190
 
 occupancies and eigenvectors
 
  o =  0.8190  v =  1.0000  0.0000      0.0000  0.0000
  o =  0.8190  v =  0.0000  1.0000      0.0000  0.0000
atom =  22  type =  4  l = 0
 
 onsite density matrix
 
spin component  1
 
  0.8190
 
spin component  2
 
  0.8190
 
 occupancies and eigenvectors
 
  o =  0.8190  v =  1.0000  0.0000      0.0000  0.0000
  o =  0.8190  v =  0.0000  1.0000      0.0000  0.0000
atom =  23  type =  4  l = 0
 
 onsite density matrix
 
spin component  1
 
  0.8190
 
spin component  2
 
  0.8190
 
 occupancies and eigenvectors
 
  o =  0.8190  v =  1.0000  0.0000      0.0000  0.0000
  o =  0.8190  v =  0.0000  1.0000      0.0000  0.0000
atom =  24  type =  4  l = 0
 
 onsite density matrix
 
spin component  1
 
  0.8190
 
spin component  2
 
  0.8190
 
 occupancies and eigenvectors
 
  o =  0.8190  v =  1.0000  0.0000      0.0000  0.0000
  o =  0.8190  v =  0.0000  1.0000      0.0000  0.0000
atom =  25  type =  4  l = 0
 
 onsite density matrix
 
spin component  1
 
  0.8190
 
spin component  2
 
  0.8190
 
 occupancies and eigenvectors
 
  o =  0.8190  v =  1.0000  0.0000      0.0000  0.0000
  o =  0.8190  v =  0.0000  1.0000      0.0000  0.0000
     EDDAV:  cpu time    5.2822: real time    5.3074
 BZINTS: Fermi energy: 31.253755;189.000000 electrons
         Band energy:2801.101107;  BLOECHL correction: -0.302555
       DOS:  cpu time    0.0391: real time    0.0407
    --------------------------------------------
      LOOP:  cpu time    5.4115: real time    5.4402

 eigenvalue-minimisations  :  9890
 total energy-change (2. order) : 0.2931392E+04  (-0.6711829E+04)
 number of electron     189.0000000 magnetization      17.0000000
 augmentation part      189.0000000 magnetization      17.0000000

 Free energy of the ion-electron system (eV)
  ---------------------------------------------------
  alpha Z        PSCENC =       824.41770933
  Ewald energy   TEWEN  =    -13149.57466939
  -Hartree energ DENC   =     -2969.48888185
  -exchange      EXHF   =         0.00000000
  -V(xc)+E(xc)   XCENC  =       650.33955781
  PAW double counting   =     12113.24528192   -12220.41125290
  entropy T*S    EENTRO =         0.00000000
  eigenvalues    EBANDS =      2801.10110719
  atomic energy  EATOM  =     14881.76277809
  Solvation  Ediel_sol  =         0.00000000
  ---------------------------------------------------
  free energy    TOTEN  =      2931.39163021 eV

  energy without entropy =     2931.39163021  energy(sigma->0) =     2931.39163021


--------------------------------------------------------------------------------------------------------




--------------------------------------- Iteration      1(   2)  ---------------------------------------


     EDDAV:  cpu time    5.5040: real time    5.5309
 BZINTS: Fermi energy: 16.347684;189.000000 electrons
         Band energy: 854.894599;  BLOECHL correction: -0.065716
       DOS:  cpu time    0.0398: real time    0.0408
    --------------------------------------------
      LOOP:  cpu time    5.5438: real time    5.5716

 eigenvalue-minimisations  : 10416
 total energy-change (2. order) :-0.1946207E+04  (-0.1755642E+04)
 number of electron     189.0000000 magnetization      17.0000000
 augmentation part      189.0000000 magnetization      17.0000000

 Free energy of the ion-electron system (eV)
  ---------------------------------------------------
  alpha Z        PSCENC =       824.41770933
  Ewald energy   TEWEN  =    -13149.57466939
  -Hartree energ DENC   =     -2969.48888185
  -exchange      EXHF   =         0.00000000
  -V(xc)+E(xc)   XCENC  =       650.33955781
  PAW double counting   =     12113.24528192   -12220.41125290
  entropy T*S    EENTRO =         0.00000000
  eigenvalues    EBANDS =       854.89459891
  atomic energy  EATOM  =     14881.76277809
  Solvation  Ediel_sol  =         0.00000000
  ---------------------------------------------------
  free energy    TOTEN  =       985.18512193 eV

  energy without entropy =      985.18512193  energy(sigma->0) =      985.18512193


--------------------------------------------------------------------------------------------------------




--------------------------------------- Iteration      1(   3)  ---------------------------------------


     EDDAV:  cpu time    5.3857: real time    5.4119
 BZINTS: Fermi energy: 12.296949;189.000000 electrons
         Band energy:  65.627959;  BLOECHL correction: -0.018562
       DOS:  cpu time    0.0412: real time    0.0413
    --------------------------------------------
      LOOP:  cpu time    5.4270: real time    5.4532

 eigenvalue-minimisations  : 10288
 total energy-change (2. order) :-0.7892666E+03  (-0.7118337E+03)
 number of electron     189.0000000 magnetization      17.0000000
 augmentation part      189.0000000 magnetization      17.0000000

 Free energy of the ion-electron system (eV)
  ---------------------------------------------------
  alpha Z        PSCENC =       824.41770933
  Ewald energy   TEWEN  =    -13149.57466939
  -Hartree energ DENC   =     -2969.48888185
  -exchange      EXHF   =         0.00000000
  -V(xc)+E(xc)   XCENC  =       650.33955781
  PAW double counting   =     12113.24528192   -12220.41125290
  entropy T*S    EENTRO =         0.00000000
  eigenvalues    EBANDS =        65.62795926
  atomic energy  EATOM  =     14881.76277809
  Solvation  Ediel_sol  =         0.00000000
  ---------------------------------------------------
  free energy    TOTEN  =       195.91848228 eV

  energy without entropy =      195.91848228  energy(sigma->0) =      195.91848228


--------------------------------------------------------------------------------------------------------




--------------------------------------- Iteration      1(   4)  ---------------------------------------


     EDDAV:  cpu time    7.3728: real time    7.4035
 BZINTS: Fermi energy: 11.675502;189.000000 electrons
         Band energy:-270.953903;  BLOECHL correction: -0.004062
       DOS:  cpu time    0.0399: real time    0.0400
    --------------------------------------------
      LOOP:  cpu time    7.4127: real time    7.4434

 eigenvalue-minimisations  : 15086
 total energy-change (2. order) :-0.3365819E+03  (-0.3192897E+03)
 number of electron     189.0000000 magnetization      17.0000000
 augmentation part      189.0000000 magnetization      17.0000000

 Free energy of the ion-electron system (eV)
  ---------------------------------------------------
  alpha Z        PSCENC =       824.41770933
  Ewald energy   TEWEN  =    -13149.57466939
  -Hartree energ DENC   =     -2969.48888185
  -exchange      EXHF   =         0.00000000
  -V(xc)+E(xc)   XCENC  =       650.33955781
  PAW double counting   =     12113.24528192   -12220.41125290
  entropy T*S    EENTRO =         0.00000000
  eigenvalues    EBANDS =      -270.95390271
  atomic energy  EATOM  =     14881.76277809
  Solvation  Ediel_sol  =         0.00000000
  ---------------------------------------------------
  free energy    TOTEN  =      -140.66337969 eV

  energy without entropy =     -140.66337969  energy(sigma->0) =     -140.66337969


--------------------------------------------------------------------------------------------------------




--------------------------------------- Iteration      1(   5)  ---------------------------------------


     EDDAV:  cpu time    8.2309: real time    8.2716
 BZINTS: Fermi energy: 11.198984;189.000000 electrons
         Band energy:-336.811991;  BLOECHL correction: -0.026107
       DOS:  cpu time    0.0402: real time    0.0405
    CHARGE:  cpu time    0.2315: real time    0.2321
    MIXING:  cpu time    0.0034: real time    0.0035
    --------------------------------------------
      LOOP:  cpu time    8.5061: real time    8.5478

 eigenvalue-minimisations  : 17044
 total energy-change (2. order) :-0.6585809E+02  (-0.6383098E+02)
 number of electron     189.0000013 magnetization      14.8236688
 augmentation part       24.8873466 magnetization      11.0148644

 Broyden mixing:
  rms(total) = 0.71067E+01    rms(broyden)= 0.71063E+01
  rms(prec ) = 0.86319E+01
  weight for this iteration     100.00

 Free energy of the ion-electron system (eV)
  ---------------------------------------------------
  alpha Z        PSCENC =       824.41770933
  Ewald energy   TEWEN  =    -13149.57466939
  -Hartree energ DENC   =     -2969.48888185
  -exchange      EXHF   =         0.00000000
  -V(xc)+E(xc)   XCENC  =       650.33955781
  PAW double counting   =     12113.24528192   -12220.41125290
  entropy T*S    EENTRO =         0.00000000
  eigenvalues    EBANDS =      -336.81199106
  atomic energy  EATOM  =     14881.76277809
  Solvation  Ediel_sol  =         0.00000000
  ---------------------------------------------------
  free energy    TOTEN  =      -206.52146804 eV

  energy without entropy =     -206.52146804  energy(sigma->0) =     -206.52146804


--------------------------------------------------------------------------------------------------------




--------------------------------------- Iteration      1(   6)  ---------------------------------------


    POTLOK:  cpu time    0.0722: real time    0.0737
    SETDIJ:  cpu time    0.0138: real time    0.0141
atom =   1  type =  1  l = 0
 
 onsite density matrix
 
spin component  1
 
  1.0561
 
spin component  2
 
  1.0564
 
 occupancies and eigenvectors
 
  o =  1.0561  v =  1.0000  0.0000      0.0000  0.0000
  o =  1.0564  v =  0.0000  1.0000      0.0000  0.0000
atom =   2  type =  1  l = 0
 
 onsite density matrix
 
spin component  1
 
  1.0571
 
spin component  2
 
  1.0571
 
 occupancies and eigenvectors
 
  o =  1.0571  v =  1.0000  0.0000      0.0000  0.0000
  o =  1.0571  v =  0.0000  1.0000      0.0000  0.0000
atom =   3  type =  1  l = 0
 
 onsite density matrix
 
spin component  1
 
  1.0563
 
spin component  2
 
  1.0564
 
 occupancies and eigenvectors
 
  o =  1.0563  v =  1.0000  0.0000      0.0000  0.0000
  o =  1.0564  v =  0.0000  1.0000      0.0000  0.0000
atom =   4  type =  1  l = 0
 
 onsite density matrix
 
spin component  1
 
  1.0563
 
spin component  2
 
  1.0564
 
 occupancies and eigenvectors
 
  o =  1.0563  v =  1.0000  0.0000      0.0000  0.0000
  o =  1.0564  v =  0.0000  1.0000      0.0000  0.0000
atom =   5  type =  1  l = 0
 
 onsite density matrix
 
spin component  1
 
  1.0571
 
spin component  2
 
  1.0571
 
 occupancies and eigenvectors
 
  o =  1.0571  v =  1.0000  0.0000      0.0000  0.0000
  o =  1.0571  v =  0.0000  1.0000      0.0000  0.0000
atom =   6  type =  2  l = 2
 
 onsite density matrix
 
spin component  1
 
  0.9661  0.0024 -0.0015 -0.0024 -0.0000
  0.0024  0.9597  0.0027 -0.0010  0.0021
 -0.0015  0.0027  0.3356 -0.0027 -0.0000
 -0.0024 -0.0010 -0.0027  0.9597  0.0021
 -0.0000  0.0021 -0.0000  0.0021  0.3269
 
spin component  2
 
  0.0270 -0.0016  0.0008  0.0016  0.0000
 -0.0016  0.0329 -0.0015 -0.0000 -0.0013
  0.0008 -0.0015  0.4640  0.0015  0.0000
  0.0016 -0.0000  0.0015  0.0329 -0.0013
  0.0000 -0.0013  0.0000 -0.0013  0.4692
 
 occupancies and eigenvectors
 
  o =  0.0262  v =  0.0000  0.0000  0.0000  0.0000  0.0000  0.9447  0.2320 -0.0000 -0.2320 -0.0000      0.0000  0.0000  0.0000  0.0000  0.0000  0.0000  0.0000  0.0000  0.0000  0.0000
  o =  0.0329  v =  0.0000  0.0000  0.0000  0.0000  0.0000  0.0000  0.7071 -0.0000  0.7071  0.0042      0.0000  0.0000  0.0000  0.0000  0.0000  0.0000  0.0000  0.0000  0.0000  0.0000
  o =  0.0337  v =  0.0000  0.0000  0.0000  0.0000  0.0000  0.3280 -0.6680 -0.0053  0.6680 -0.0000      0.0000  0.0000  0.0000  0.0000  0.0000  0.0000  0.0000  0.0000  0.0000  0.0000
  o =  0.3269  v =  0.0000 -0.0033  0.0000 -0.0033  1.0000  0.0000  0.0000  0.0000  0.0000  0.0000      0.0000  0.0000  0.0000  0.0000  0.0000  0.0000  0.0000  0.0000  0.0000  0.0000
  o =  0.3356  v =  0.0023 -0.0044  1.0000  0.0044 -0.0000  0.0000  0.0000  0.0000  0.0000  0.0000      0.0000  0.0000  0.0000  0.0000  0.0000  0.0000  0.0000  0.0000  0.0000  0.0000
  o =  0.4641  v =  0.0000  0.0000  0.0000  0.0000  0.0000 -0.0017  0.0036 -1.0000 -0.0036  0.0000      0.0000  0.0000  0.0000  0.0000  0.0000  0.0000  0.0000  0.0000  0.0000  0.0000
  o =  0.4692  v =  0.0000  0.0000  0.0000  0.0000  0.0000  0.0000 -0.0030  0.0000 -0.0030  1.0000      0.0000  0.0000  0.0000  0.0000  0.0000  0.0000  0.0000  0.0000  0.0000  0.0000
  o =  0.9587  v =  0.0000 -0.7071 -0.0000 -0.7071 -0.0047  0.0000  0.0000  0.0000  0.0000  0.0000      0.0000  0.0000  0.0000  0.0000  0.0000  0.0000  0.0000  0.0000  0.0000  0.0000
  o =  0.9591  v =  0.4386 -0.6354 -0.0066  0.6354  0.0000  0.0000  0.0000  0.0000  0.0000  0.0000      0.0000  0.0000  0.0000  0.0000  0.0000  0.0000  0.0000  0.0000  0.0000  0.0000
  o =  0.9677  v =  0.8987  0.3102  0.0006 -0.3102 -0.0000  0.0000  0.0000  0.0000  0.0000  0.0000      0.0000  0.0000  0.0000  0.0000  0.0000  0.0000  0.0000  0.0000  0.0000  0.0000
atom =   7  type =  2  l = 2
 
 onsite density matrix
 
spin component  1
 
  0.9661  0.0024 -0.0015 -0.0024 -0.0000
  0.0024  0.9597  0.0027 -0.0010  0.0021
 -0.0015  0.0027  0.3356 -0.0027 -0.0000
 -0.0024 -0.0010 -0.0027  0.9597  0.0021
 -0.0000  0.0021 -0.0000  0.0021  0.3269
 
spin component  2
 
  0.0270 -0.0016  0.0008  0.0016  0.0000
 -0.0016  0.0329 -0.0015 -0.0000 -0.0013
  0.0008 -0.0015  0.4640  0.0015  0.0000
  0.0016 -0.0000  0.0015  0.0329 -0.0013
  0.0000 -0.0013  0.0000 -0.0013  0.4692
 
 occupancies and eigenvectors
 
  o =  0.0262  v =  0.0000  0.0000  0.0000  0.0000  0.0000  0.9447  0.2320 -0.0000 -0.2320 -0.0000      0.0000  0.0000  0.0000  0.0000  0.0000  0.0000  0.0000  0.0000  0.0000  0.0000
  o =  0.0329  v =  0.0000  0.0000  0.0000  0.0000  0.0000  0.0000  0.7071 -0.0000  0.7071  0.0042      0.0000  0.0000  0.0000  0.0000  0.0000  0.0000  0.0000  0.0000  0.0000  0.0000
  o =  0.0337  v =  0.0000  0.0000  0.0000  0.0000  0.0000  0.3280 -0.6680 -0.0053  0.6680 -0.0000      0.0000  0.0000  0.0000  0.0000  0.0000  0.0000  0.0000  0.0000  0.0000  0.0000
  o =  0.3269  v =  0.0000 -0.0033  0.0000 -0.0033  1.0000  0.0000  0.0000  0.0000  0.0000  0.0000      0.0000  0.0000  0.0000  0.0000  0.0000  0.0000  0.0000  0.0000  0.0000  0.0000
  o =  0.3356  v =  0.0023 -0.0044  1.0000  0.0044 -0.0000  0.0000  0.0000  0.0000  0.0000  0.0000      0.0000  0.0000  0.0000  0.0000  0.0000  0.0000  0.0000  0.0000  0.0000  0.0000
  o =  0.4641  v =  0.0000  0.0000  0.0000  0.0000  0.0000 -0.0017  0.0036 -1.0000 -0.0036  0.0000      0.0000  0.0000  0.0000  0.0000  0.0000  0.0000  0.0000  0.0000  0.0000  0.0000
  o =  0.4692  v =  0.0000  0.0000  0.0000  0.0000  0.0000  0.0000 -0.0030  0.0000 -0.0030  1.0000      0.0000  0.0000  0.0000  0.0000  0.0000  0.0000  0.0000  0.0000  0.0000  0.0000
  o =  0.9587  v =  0.0000 -0.7071 -0.0000 -0.7071 -0.0047  0.0000  0.0000  0.0000  0.0000  0.0000      0.0000  0.0000  0.0000  0.0000  0.0000  0.0000  0.0000  0.0000  0.0000  0.0000
  o =  0.9591  v =  0.4386 -0.6354 -0.0066  0.6354  0.0000  0.0000  0.0000  0.0000  0.0000  0.0000      0.0000  0.0000  0.0000  0.0000  0.0000  0.0000  0.0000  0.0000  0.0000  0.0000
  o =  0.9677  v =  0.8987  0.3102  0.0006 -0.3102 -0.0000  0.0000  0.0000  0.0000  0.0000  0.0000      0.0000  0.0000  0.0000  0.0000  0.0000  0.0000  0.0000  0.0000  0.0000  0.0000
atom =   8  type =  3  l = 2
 
 onsite density matrix
 
spin component  1
 
  0.9851 -0.0058  0.0003  0.0058  0.0000
 -0.0058  0.9305  0.0036  0.0070  0.0021
  0.0003  0.0036  1.3078 -0.0036 -0.0000
  0.0058  0.0070 -0.0036  0.9305  0.0021
  0.0000  0.0021 -0.0000  0.0021  1.3343
 
spin component  2
 
  0.6684  0.0092 -0.0006 -0.0092 -0.0000
  0.0092  0.7534 -0.0057 -0.0122 -0.0027
 -0.0006 -0.0057  0.1932  0.0057  0.0000
 -0.0092 -0.0122  0.0057  0.7534 -0.0027
 -0.0000 -0.0027  0.0000 -0.0027  0.2029
 
 occupancies and eigenvectors
 
  o =  0.1931  v =  0.0000  0.0000  0.0000  0.0000  0.0000 -0.0009 -0.0099 -0.9999  0.0099  0.0000      0.0000  0.0000  0.0000  0.0000  0.0000  0.0000  0.0000  0.0000  0.0000  0.0000
  o =  0.2029  v =  0.0000  0.0000  0.0000  0.0000  0.0000  0.0000  0.0051  0.0000  0.0051  1.0000      0.0000  0.0000  0.0000  0.0000  0.0000  0.0000  0.0000  0.0000  0.0000  0.0000
  o =  0.6667  v =  0.0000  0.0000  0.0000  0.0000  0.0000 -0.9915  0.0920 -0.0009 -0.0920  0.0000      0.0000  0.0000  0.0000  0.0000  0.0000  0.0000  0.0000  0.0000  0.0000  0.0000
  o =  0.7413  v =  0.0000  0.0000  0.0000  0.0000  0.0000 -0.0000 -0.7071  0.0000 -0.7071  0.0072      0.0000  0.0000  0.0000  0.0000  0.0000  0.0000  0.0000  0.0000  0.0000  0.0000
[...]
  0.000   0.000  -0.000  -0.000   0.000   0.000   0.000  -0.000   0.000   0.000   0.000   0.000  -0.000  -0.000   0.000   0.000
 -0.000   0.000  -0.000  -0.000   0.000   0.000   0.000  -0.000   0.000   0.000  -0.000   0.000   0.000   0.000   0.000   0.000
  0.000   0.000  -0.000  -0.000   0.000   0.000   0.000  -0.000   0.000   0.000   0.000  -0.000   0.000   0.000   0.000   0.000
  0.000   0.000   0.000   0.000  -0.000  -0.000  -0.000   0.000   0.000   0.000   0.000   0.000  -0.000   0.000   0.000   0.000
  0.000   0.000   0.000   0.000   0.000   0.000   0.000   0.000   0.000  -0.007   0.008   0.007   0.000   0.000   0.003  -0.003
  0.000   0.001   0.000   0.000   0.000   0.000   0.000   0.000  -0.007   0.002  -0.004   0.006   0.007   0.003  -0.000   0.001
  0.000   0.001   0.000   0.000   0.000  -0.000   0.000   0.000   0.008  -0.004   0.016   0.004  -0.000  -0.003   0.001  -0.007
 -0.000  -0.001  -0.000   0.000   0.000   0.000   0.000   0.000   0.007   0.006   0.004   0.002   0.007  -0.003  -0.003  -0.001
 -0.000  -0.000   0.000   0.000   0.000   0.000   0.000  -0.000   0.000   0.007  -0.000   0.007   0.016  -0.000  -0.003   0.000
 -0.000  -0.000   0.000   0.000  -0.000   0.000   0.000   0.000   0.000   0.003  -0.003  -0.003  -0.000  -0.000  -0.001   0.001
 -0.000  -0.001   0.000   0.000   0.000   0.000   0.000   0.000   0.003  -0.000   0.001  -0.003  -0.003  -0.001  -0.000  -0.001
 -0.000  -0.000  -0.000   0.000   0.000   0.000   0.000   0.000  -0.003   0.001  -0.007  -0.001   0.000   0.001  -0.001   0.003
  0.000   0.001   0.000   0.000   0.000   0.000   0.000   0.000  -0.003  -0.003  -0.001  -0.000  -0.003   0.001   0.001   0.001
  0.000   0.000   0.000   0.000   0.000  -0.000   0.000   0.000  -0.000  -0.002   0.000  -0.002  -0.006   0.000   0.001  -0.000
  0.000   0.000   0.000   0.000   0.000   0.000  -0.000  -0.000  -0.000   0.000   0.000   0.000   0.000   0.000   0.000   0.000
  0.000   0.000  -0.000   0.000   0.000   0.001  -0.001  -0.001   0.000   0.000   0.000  -0.000   0.000   0.000  -0.000   0.000
 -0.000   0.000  -0.000   0.000   0.000   0.000   0.000  -0.000   0.000   0.000   0.000   0.000   0.000   0.000   0.000  -0.000
  0.000   0.000  -0.000   0.000   0.000   0.000  -0.000  -0.000   0.000   0.000   0.000   0.000   0.000   0.000   0.000   0.000
 -0.000   0.000   0.000  -0.000  -0.000  -0.000  -0.000   0.000   0.000   0.000   0.000  -0.000   0.000   0.000   0.000   0.000
  0.000   0.000  -0.000  -0.000  -0.000  -0.000   0.000  -0.000   0.000   0.000   0.000   0.000   0.000   0.000   0.000   0.000
 -0.000   0.000  -0.000   0.000  -0.000   0.000  -0.000  -0.000   0.000   0.000  -0.000   0.000   0.000  -0.000   0.000  -0.000
  0.000  -0.000   0.000  -0.000  -0.000  -0.000   0.000  -0.000   0.000   0.000   0.000   0.000  -0.000   0.000   0.000  -0.000
 -0.000   0.000   0.001  -0.001  -0.001  -0.001   0.001   0.001   0.000   0.000   0.000   0.000   0.000   0.000  -0.000   0.000
  0.000   0.000   0.000  -0.000  -0.000  -0.000  -0.000   0.000   0.000   0.000   0.000   0.000   0.000   0.000   0.000   0.000
  0.000   0.000   0.000  -0.000  -0.000  -0.000   0.001   0.000   0.000   0.000   0.000  -0.000   0.000   0.000   0.000   0.000
 -0.000   0.000  -0.000   0.000   0.000   0.000   0.000  -0.000   0.000  -0.000   0.000   0.000   0.000   0.000   0.000   0.000
  0.000   0.000  -0.000   0.000  -0.000   0.000  -0.000   0.000   0.000   0.000   0.000   0.000   0.000   0.000   0.000   0.000
 -0.000   0.000   0.000  -0.000  -0.000   0.000   0.000   0.000   0.000   0.000   0.000   0.000   0.000  -0.000  -0.000   0.000


------------------------ aborting loop because EDIFF is reached ----------------------------------------


 


 total charge     
 
# of ion       s       p       d       f       tot
--------------------------------------------------
    1        1.999   5.699   0.490   0.190   8.379
    2        2.000   5.700   0.494   0.193   8.387
    3        2.000   5.699   0.496   0.192   8.387
    4        2.000   5.699   0.496   0.192   8.387
    5        2.000   5.700   0.494   0.193   8.387
    6        0.358   0.572   4.862   0.000   5.792
    7        0.358   0.572   4.862   0.000   5.792
    8        0.435   0.660   8.329   0.000   9.424
    9        0.394   0.566   8.319   0.000   9.279
   10        0.394   0.566   8.319   0.000   9.279
   11        1.564   3.456   0.000   0.000   5.020
   12        1.564   3.456   0.000   0.000   5.020
   13        1.561   3.458   0.000   0.000   5.019
   14        1.557   3.450   0.000   0.000   5.006
   15        1.561   3.458   0.000   0.000   5.019
   16        1.562   3.468   0.000   0.000   5.030
   17        1.559   3.448   0.000   0.000   5.008
   18        1.563   3.456   0.000   0.000   5.019
   19        1.563   3.456   0.000   0.000   5.019
   20        1.559   3.448   0.000   0.000   5.008
   21        1.563   3.456   0.000   0.000   5.019
   22        1.560   3.448   0.000   0.000   5.008
   23        1.562   3.468   0.000   0.000   5.030
   24        1.559   3.448   0.000   0.000   5.008
   25        1.563   3.456   0.000   0.000   5.019
--------------------------------------------------
tot         35.356  83.266  37.160   0.959 156.741

 


 magnetization (x)
 
# of ion       s       p       d       f       tot
--------------------------------------------------
    1        0.000   0.001   0.005   0.002   0.009
    2        0.001   0.001   0.009   0.004   0.014
    3        0.000   0.001   0.006   0.003   0.009
    4        0.000   0.001   0.006   0.003   0.009
    5        0.001   0.001   0.009   0.004   0.014
    6        0.023   0.029   3.194   0.000   3.247
    7        0.023   0.029   3.194   0.000   3.247
    8        0.018   0.013   1.352   0.000   1.383
    9        0.010  -0.000   1.642   0.000   1.652
   10        0.010  -0.000   1.642   0.000   1.652
   11        0.006  -0.008   0.000   0.000  -0.002
   12        0.006  -0.008   0.000   0.000  -0.002
   13        0.004  -0.011   0.000   0.000  -0.007
   14        0.006  -0.015   0.000   0.000  -0.009
   15        0.004  -0.011   0.000   0.000  -0.007
   16        0.002  -0.009   0.000   0.000  -0.007
   17        0.006  -0.046   0.000   0.000  -0.041
   18        0.004  -0.037   0.000   0.000  -0.033
   19        0.004  -0.037   0.000   0.000  -0.033
   20        0.006  -0.046   0.000   0.000  -0.041
   21        0.004  -0.037   0.000   0.000  -0.033
   22        0.006  -0.046   0.000   0.000  -0.041
   23        0.002  -0.009   0.000   0.000  -0.007
   24        0.006  -0.046   0.000   0.000  -0.041
   25        0.004  -0.037   0.000   0.000  -0.033
--------------------------------------------------
tot          0.157  -0.330  11.059   0.015  10.901

 
    CHARGE:  cpu time    0.2322: real time    0.2329
    FORLOC:  cpu time    0.0090: real time    0.0090
    FORNL :  cpu time    1.4307: real time    1.4359
    STRESS:  cpu time    4.3156: real time    4.3329
    FORCOR:  cpu time    0.0788: real time    0.0791
    FORHAR:  cpu time    0.0162: real time    0.0163
    MIXING:  cpu time    0.0095: real time    0.0095
    OFIELD:  cpu time    0.0001: real time    0.0002

  FORCE on cell =-STRESS in cart. coord.  units (eV):
  Direction    XX          YY          ZZ          XY          YZ          ZX
  --------------------------------------------------------------------------------------
  Alpha Z   824.41771   824.41771   824.41771
  Ewald   -4344.22364 -4344.22364 -4461.16100    13.79521     8.76257    -8.76257
  Hartree  1030.34266  1030.34266   951.72158    12.67986     9.29056    -9.29056
  E(xc)    -882.13720  -882.13719  -882.31066    -0.00498    -0.00994     0.00993
  Local    -671.36611  -671.36595  -486.09813   -26.38697   -17.91385    17.91353
  n-local   353.85097   353.83720   352.79215     0.11867     0.10629    -0.10970
  augment   479.22848   479.22843   483.19106    -0.00360     0.00074     0.00011
  Kinetic  3210.16622  3210.17090  3217.78743    -0.18349    -0.24039     0.25471
  Fock        0.00000     0.00000     0.00000     0.00000     0.00000     0.00000
  -------------------------------------------------------------------------------------
  Total       0.27462     0.27462     0.34014     0.01468    -0.00959     0.00959
  in kB       1.51709     1.51709     1.87906     0.08112    -0.05296     0.05296
  external pressure =        1.64 kB  Pullay stress =        0.00 kB


 VOLUME and BASIS-vectors are now :
 -----------------------------------------------------------------------------
  energy-cutoff  :      520.00
  volume of cell :      290.02
      direct lattice vectors                 reciprocal lattice vectors
    -3.858471747 -3.858471747  0.000000000    -0.155471861 -0.103698107 -0.051370261
    -3.861228370  3.861228370  3.891556740    -0.103586113  0.103586113  0.051408919
    -0.002831170  3.861302917 -7.786015275    -0.051773753  0.051773753 -0.102740522

  length of vectors
     5.456703074  6.705399534  8.690897658     0.193813572  0.155251546  0.126161238


 FORCES acting on ions
    electron-ion (+dipol)            ewald-force                    non-local-force                 convergence-correction
 -----------------------------------------------------------------------------------------------
   -.167E-04 -.346E-05 -.149E-04   0.102E-10 -.125E-10 -.294E-10   -.189E-18 0.271E-19 0.000E+00   -.288E-05 -.321E-05 0.900E-07
   -.107E+02 0.107E+02 -.603E+02   0.105E+02 -.105E+02 0.598E+02   0.120E+00 -.120E+00 0.506E+00   0.416E-02 -.415E-02 -.150E-01
   0.276E+02 -.276E+02 0.903E+02   -.272E+02 0.272E+02 -.895E+02   -.254E+00 0.254E+00 -.799E+00   0.702E-02 -.702E-02 0.169E-01
   -.276E+02 0.276E+02 -.903E+02   0.272E+02 -.272E+02 0.895E+02   0.254E+00 -.254E+00 0.799E+00   -.702E-02 0.702E-02 -.169E-01
   0.107E+02 -.107E+02 0.603E+02   -.105E+02 0.105E+02 -.598E+02   -.120E+00 0.120E+00 -.506E+00   -.415E-02 0.416E-02 0.150E-01
   -.250E+02 0.250E+02 -.118E+02   0.247E+02 -.247E+02 0.117E+02   0.375E+00 -.375E+00 0.961E-01   -.119E-01 0.119E-01 0.255E-03
   0.250E+02 -.250E+02 0.118E+02   -.247E+02 0.247E+02 -.117E+02   -.375E+00 0.375E+00 -.961E-01   0.119E-01 -.119E-01 -.255E-03
   -.635E-04 -.585E-04 -.415E-04   -.345E-10 0.230E-10 -.179E-10   -.449E-19 -.407E-19 0.000E+00   0.147E-06 0.288E-08 0.319E-06
   -.286E+02 0.286E+02 -.303E+02   0.281E+02 -.281E+02 0.292E+02   0.471E+00 -.471E+00 0.114E+01   0.154E-05 -.116E-05 -.148E-02
   0.286E+02 -.286E+02 0.303E+02   -.281E+02 0.281E+02 -.292E+02   -.471E+00 0.471E+00 -.114E+01   -.126E-05 0.640E-06 0.148E-02
   -.873E+01 0.873E+01 -.548E+02   0.875E+01 -.875E+01 0.488E+02   -.343E-01 0.343E-01 0.601E+01   -.254E-02 0.254E-02 -.258E-01
   0.873E+01 -.873E+01 0.548E+02   -.875E+01 0.875E+01 -.488E+02   0.343E-01 -.343E-01 -.601E+01   0.254E-02 -.254E-02 0.258E-01
   -.286E-02 0.290E-02 -.492E+02   -.190E+00 0.190E+00 0.448E+02   0.168E+00 -.168E+00 0.445E+01   0.335E-02 -.335E-02 -.282E-01
   0.160E-04 0.311E-04 -.313E-05   0.345E-11 0.540E-12 -.119E-10   -.836E-19 0.108E-18 0.000E+00   0.137E-06 -.232E-06 0.251E-06
   0.289E-02 -.285E-02 0.492E+02   0.190E+00 -.190E+00 -.448E+02   -.168E+00 0.168E+00 -.445E+01   -.335E-02 0.335E-02 0.282E-01
   0.165E-04 0.161E-04 0.288E-05   0.151E-10 -.180E-10 -.144E-10   -.191E-19 0.542E-19 -.108E-18   -.213E-06 0.234E-06 -.782E-07
   -.112E+02 0.280E+02 -.911E+01   0.116E+02 -.306E+02 0.897E+01   -.434E+00 0.258E+01 0.147E+00   0.563E-03 -.260E-02 -.133E-02
   0.220E+02 -.375E+02 0.112E+02   -.226E+02 0.314E+02 -.109E+02   0.727E+00 0.604E+01 -.313E+00   0.497E-02 -.270E-01 -.796E-03
   -.220E+02 0.375E+02 -.112E+02   0.226E+02 -.314E+02 0.109E+02   -.727E+00 -.604E+01 0.313E+00   -.497E-02 0.270E-01 0.795E-03
   0.112E+02 -.280E+02 0.911E+01   -.116E+02 0.306E+02 -.897E+01   0.434E+00 -.258E+01 -.147E+00   -.563E-03 0.260E-02 0.133E-02
   -.375E+02 0.220E+02 -.112E+02   0.314E+02 -.226E+02 0.109E+02   0.604E+01 0.727E+00 0.313E+00   -.270E-01 0.497E-02 0.795E-03
   0.280E+02 -.112E+02 0.911E+01   -.306E+02 0.116E+02 -.897E+01   0.258E+01 -.434E+00 -.147E+00   -.260E-02 0.563E-03 0.133E-02
   0.110E-04 0.187E-04 0.838E-05   0.241E-10 -.201E-10 -.201E-11   0.250E-18 0.542E-19 -.542E-19   -.251E-06 0.235E-06 -.108E-06
   -.280E+02 0.112E+02 -.911E+01   0.306E+02 -.116E+02 0.897E+01   -.258E+01 0.434E+00 0.147E+00   0.260E-02 -.563E-03 -.133E-02
   0.375E+02 -.220E+02 0.112E+02   -.314E+02 0.226E+02 -.109E+02   -.604E+01 -.727E+00 -.313E+00   0.270E-01 -.497E-02 -.796E-03
 -----------------------------------------------------------------------------------------------
   0.845E-04 0.149E-03 0.996E-04   -.391E-13 0.462E-13 -.817E-13   -.888E-15 0.666E-15 0.888E-15   -.119E-05 -.255E-06 -.158E-05
 
 
 POSITION                                       TOTAL-FORCE (eV/Angst)
 -----------------------------------------------------------------------------------
     -3.86072      0.00225     -3.89330        -0.000000     -0.000000      0.000000
     -3.87455      0.01608     -0.05223        -0.036800      0.036800     -0.042393
     -3.83055      3.83055     -3.81274         0.059826     -0.059826      0.022553
     -3.89365      3.89365     -0.08230        -0.059826      0.059826     -0.022553
     -7.70812      3.84965     -3.84280         0.036800     -0.036800      0.042393
     -5.79659      1.93812      1.95365         0.075126     -0.075126      0.053975
     -1.92478      1.92478      1.93733        -0.075126      0.075126     -0.053975
     -5.79134      1.93286     -1.94752        -0.000000     -0.000000      0.000000
     -1.92871      1.92871     -1.94493         0.035127     -0.035127      0.030082
     -1.93426      1.93426     -5.84166        -0.035127      0.035127     -0.030082
     -5.78759      1.92912      0.06411        -0.011909      0.011909     -0.019101
     -5.79509      1.93661     -3.95915         0.011909     -0.011909      0.019101
     -1.92981      1.92981      0.02957        -0.021416      0.021416     -0.013083
     -1.93149      1.93149     -3.89330        -0.000000     -0.000000      0.000000
     -5.79155      1.93308      3.86140         0.021416     -0.021416      0.013083
     -5.78992      0.00221      1.94549        -0.000000     -0.000000      0.000000
     -5.78933      0.03963     -1.93831        -0.026892     -0.004341      0.000407
     -1.93345      3.90949     -5.84924         0.041669     -0.026448     -0.021962
     -1.92953     -0.04652     -1.93736        -0.041669      0.026448      0.021962
     -5.79334      3.82610     -1.95673         0.026892      0.004341     -0.000407
     -3.81196     -1.92895     -1.93736        -0.026448      0.041669      0.021962
     -3.82610      5.79334     -1.95673        -0.004341     -0.026892     -0.000407
     -3.86068      1.93145      1.94549        -0.000000     -0.000000      0.000000
     -3.89810      1.93086     -1.93831         0.004341      0.026892      0.000407
     -3.90949      1.93345     -5.84924         0.026448     -0.041669     -0.021962
 -----------------------------------------------------------------------------------
    total drift:                                0.000083      0.000148      0.000098


--------------------------------------------------------------------------------------------------------



  FREE ENERGIE OF THE ION-ELECTRON SYSTEM (eV)
  ---------------------------------------------------
  free  energy   TOTEN  =      -180.63773632 eV

  energy  without entropy=     -180.63773632  energy(sigma->0) =     -180.63773632
 


--------------------------------------------------------------------------------------------------------


    POTLOK:  cpu time    0.0856: real time    0.0860


--------------------------------------------------------------------------------------------------------


     LOOP+:  cpu time  128.5126: real time  129.1078
    4ORBIT:  cpu time    0.0000: real time    0.0000
 


 total charge     
 
# of ion       s       p       d       f       tot
--------------------------------------------------
    1        1.999   5.699   0.490   0.190   8.379
    2        2.000   5.700   0.494   0.193   8.387
    3        2.000   5.699   0.496   0.192   8.387
    4        2.000   5.699   0.496   0.192   8.387
    5        2.000   5.700   0.494   0.193   8.387
    6        0.358   0.572   4.862   0.000   5.792
    7        0.358   0.572   4.862   0.000   5.792
    8        0.435   0.660   8.329   0.000   9.424
    9        0.394   0.566   8.319   0.000   9.279
   10        0.394   0.566   8.319   0.000   9.279
   11        1.564   3.456   0.000   0.000   5.020
   12        1.564   3.456   0.000   0.000   5.020
   13        1.561   3.458   0.000   0.000   5.019
   14        1.557   3.450   0.000   0.000   5.006
   15        1.561   3.458   0.000   0.000   5.019
   16        1.562   3.468   0.000   0.000   5.030
   17        1.559   3.448   0.000   0.000   5.008
   18        1.563   3.456   0.000   0.000   5.019
   19        1.563   3.456   0.000   0.000   5.019
   20        1.559   3.448   0.000   0.000   5.008
   21        1.563   3.456   0.000   0.000   5.019
   22        1.560   3.448   0.000   0.000   5.008
   23        1.562   3.468   0.000   0.000   5.030
   24        1.559   3.448   0.000   0.000   5.008
   25        1.563   3.456   0.000   0.000   5.019
--------------------------------------------------
tot         35.356  83.266  37.160   0.959 156.741

 


 magnetization (x)
 
# of ion       s       p       d       f       tot
--------------------------------------------------
    1        0.000   0.001   0.005   0.002   0.009
    2        0.001   0.001   0.009   0.004   0.014
    3        0.000   0.001   0.006   0.003   0.009
    4        0.000   0.001   0.006   0.003   0.009
    5        0.001   0.001   0.009   0.004   0.014
    6        0.023   0.029   3.194   0.000   3.247
    7        0.023   0.029   3.194   0.000   3.247
    8        0.018   0.013   1.352   0.000   1.383
    9        0.010  -0.000   1.642   0.000   1.652
   10        0.010  -0.000   1.642   0.000   1.652
   11        0.006  -0.008   0.000   0.000  -0.002
   12        0.006  -0.008   0.000   0.000  -0.002
   13        0.004  -0.011   0.000   0.000  -0.007
   14        0.006  -0.015   0.000   0.000  -0.009
   15        0.004  -0.011   0.000   0.000  -0.007
   16        0.002  -0.009   0.000   0.000  -0.007
   17        0.006  -0.046   0.000   0.000  -0.041
   18        0.004  -0.037   0.000   0.000  -0.033
   19        0.004  -0.037   0.000   0.000  -0.033
   20        0.006  -0.046   0.000   0.000  -0.041
   21        0.004  -0.037   0.000   0.000  -0.033
   22        0.006  -0.046   0.000   0.000  -0.041
   23        0.002  -0.009   0.000   0.000  -0.007
   24        0.006  -0.046   0.000   0.000  -0.041
   25        0.004  -0.037   0.000   0.000  -0.033
--------------------------------------------------
tot          0.157  -0.330  11.059   0.015  10.901

 
 BZINTS: Fermi energy:  7.471832;189.000000 electrons
         Band energy:-251.963583;  BLOECHL correction:  0.000000

 total amount of memory used by VASP MPI-rank0    79190. kBytes
=======================================================================

   base      :      30000. kBytes
   nonlr-proj:       6643. kBytes
   fftplans  :       2817. kBytes
   grid      :       8208. kBytes
   one-center:        294. kBytes
   wavefun   :      31228. kBytes
 
  
  
 General timing and accounting informations for this job:
 ========================================================
  
                  Total CPU time used (sec):      138.050
                            User time (sec):      135.052
                          System time (sec):        2.998
                         Elapsed time (sec):      138.819
  
                   Maximum memory used (kb):      130092.
                   Average memory used (kb):           0.
  
                          Minor page faults:        38120
                          Major page faults:            0
                 Voluntary context switches:         1164
