       N       E                     dE             d eps       ncg     rms          rms(c)
DAV:   1     0.292363406186E+04    0.29236E+04   -0.67393E+04  5832   0.248E+03
DAV:   2     0.976809127331E+03   -0.19468E+04   -0.17543E+04  6056   0.626E+02
DAV:   3     0.187987542388E+03   -0.78882E+03   -0.71371E+03  6040   0.321E+02
DAV:   4    -0.141653979435E+03   -0.32964E+03   -0.31229E+03  8758   0.170E+02
DAV:   5    -0.206591021798E+03   -0.64937E+02   -0.62922E+02  9922   0.899E+01    0.708E+01
RMM:   6    -0.185161388317E+03    0.21430E+02   -0.60710E+02  9207   0.105E+02    0.948E+01
RMM:   7    -0.183057117650E+03    0.21043E+01   -0.10615E+02  9328   0.355E+01    0.407E+01
RMM:   8    -0.177998136242E+03    0.50590E+01   -0.42242E+01  7551   0.360E+01    0.189E+01
RMM:   9    -0.180253035026E+03   -0.22549E+01   -0.21403E+01  8776   0.156E+01    0.137E+01
RMM:  10    -0.180294557275E+03   -0.41522E-01   -0.37835E+00  9721   0.584E+00    0.899E+00
RMM:  11    -0.180283821501E+03    0.10736E-01   -0.19408E+00  9409   0.462E+00    0.570E+00
RMM:  12    -0.180377653456E+03   -0.93832E-01   -0.70033E-01  9569   0.260E+00    0.343E+00
RMM:  13    -0.180389812501E+03   -0.12159E-01   -0.36709E-01  9036   0.238E+00    0.312E+00
RMM:  14    -0.180397453034E+03   -0.76405E-02   -0.16215E-01  8682   0.146E+00    0.116E+00
RMM:  15    -0.180404874274E+03   -0.74212E-02   -0.76458E-02  8494   0.704E-01    0.675E-01
RMM:  16    -0.180406630967E+03   -0.17567E-02   -0.27964E-02  6935   0.543E-01    0.367E-01
RMM:  17    -0.180408380252E+03   -0.17493E-02   -0.20769E-02  6359   0.400E-01    0.257E-01
RMM:  18    -0.180409542601E+03   -0.11623E-02   -0.12925E-02  5753   0.409E-01    0.115E-01
RMM:  19    -0.180410294718E+03   -0.75212E-03   -0.82424E-03  5399   0.331E-01
   1 F= -.18041029E+03 E0= -.18041029E+03  d E =0.000000E+00  mag=    10.9998
