 vasp.5.4.4.18Apr17-6-g9f103f2a35 (build Oct 03 2018 13:58:34) complex          
  
 executed on             LinuxIFC date 2019.06.04  00:48:54
 running on   40 total cores
 distrk:  each k-point on   20 cores,    2 groups
 distr:  one band on NCORES_PER_BAND=  10 cores,    2 groups


--------------------------------------------------------------------------------------------------------


 INCAR:
 POTCAR:    PAW_PBE La 06Sep2000                  
 POTCAR:    PAW_PBE Mn 06Sep2000                  
 POTCAR:    PAW_PBE Ni 02Aug2007                  
 POTCAR:    PAW_PBE O 08Apr2002                   

 ----------------------------------------------------------------------------- 
|                                                                             |
|           W    W    AA    RRRRR   N    N  II  N    N   GGGG   !!!           |
|           W    W   A  A   R    R  NN   N  II  NN   N  G    G  !!!           |
|           W    W  A    A  R    R  N N  N  II  N N  N  G       !!!           |
|           W WW W  AAAAAA  RRRRR   N  N N  II  N  N N  G  GGG   !            |
|           WW  WW  A    A  R   R   N   NN  II  N   NN  G    G                |
|           W    W  A    A  R    R  N    N  II  N    N   GGGG   !!!           |
|                                                                             |
|      You have enabled k-point parallelism (KPAR>1).                         |
|      This developmental code was originally  written by Paul Kent at ORNL,  |
|      and carefully double checked in Vienna.                                |
|      GW as well as linear response parallelism added by Martijn Marsman     |
|      and Georg Kresse.                                                      |
|      Carefully verify results versus KPAR=1.                                |
|      Report problems to Paul Kent and Vienna.                               |
|                                                                             |
 ----------------------------------------------------------------------------- 

 POTCAR:    PAW_PBE La 06Sep2000                  
   VRHFIN =La : [core=Kr4d]                                                     
   LEXCH  = PE                                                                  
   EATOM  =   865.9763 eV,   63.6475 Ry                                         
                                                                                
   TITEL  = PAW_PBE La 06Sep2000                                                
   LULTRA =        F    use ultrasoft PP ?                                      
   IUNSCR =        1    unscreen: 0-lin 1-nonlin 2-no                           
   RPACOR =    2.300    partial core radius                                     
   POMASS =  138.900; ZVAL   =   11.000    mass and valenz                      
   RCORE  =    2.800    outmost cutoff radius                                   
   RWIGS  =    2.900; RWIGS  =    1.535    wigner-seitz radius (au A)           
   ENMAX  =  219.292; ENMIN  =  164.469 eV                                      
   RCLOC  =    1.601    cutoff for local pot                                    
   LCOR   =        T    correct aug charges                                     
   LPAW   =        T    paw PP                                                  
   EAUG   =  583.575                                                            
   DEXC   =    0.000                                                            
   RMAX   =    2.853    core radius for proj-oper                               
   RAUG   =    1.300    factor for augmentation sphere                          
   RDEP   =    2.802    radius for radial grids                                 
   RDEPT  =    2.156    core radius for aug-charge                              
                                                                                
   Atomic configuration                                                         
   14 entries                                                                   
     n  l   j            E        occ.                                          
     1  0  0.50    -38741.0879   2.0000                                         
     2  0  0.50     -6166.6801   2.0000                                         
     2  1  1.50     -5526.1593   6.0000                                         
     3  0  0.50     -1319.0200   2.0000                                         
     3  1  1.50     -1114.5963   6.0000                                         
     3  2  2.50      -821.1793  10.0000                                         
     4  0  0.50      -266.3851   2.0000                                         
     4  1  1.50      -199.9276   6.0000                                         
     4  2  2.50      -103.8239  10.0000                                         
     5  0  0.50       -38.9172   2.0000                                         
     6  0  0.50        -3.6792   2.0000                                         
     5  1  1.50       -22.3948   6.0000                                         
     5  2  2.50        -3.0911   0.9999                                         
     4  3  2.50        -4.3603   0.0001                                         
   Description                                                                  
     l       E           TYP  RCUT    TYP  RCUT                                 
     0    -38.9171645     23  2.800                                             
     0     -3.6792381     23  2.800                                             
     1    -22.3948300     23  2.500                                             
     1     27.2116520     23  2.500                                             
     2     -3.0910934     23  2.500                                             
     2      1.0119135     23  2.500                                             
     3     -4.3602911     23  2.800                                             
     3     -5.7208737     23  2.800                                             
  local pseudopotential read in
  partial core-charges read in
  partial kinetic energy density read in
  atomic valenz-charges read in
  non local Contribution for L=           0  read in
    real space projection operators read in
  non local Contribution for L=           0  read in
    real space projection operators read in
  non local Contribution for L=           1  read in
    real space projection operators read in
  non local Contribution for L=           1  read in
    real space projection operators read in
  non local Contribution for L=           2  read in
    real space projection operators read in
  non local Contribution for L=           2  read in
    real space projection operators read in
  non local Contribution for L=           3  read in
    real space projection operators read in
  non local Contribution for L=           3  read in
    real space projection operators read in
    PAW grid and wavefunctions read in
 
   number of l-projection  operators is LMAX  =           8
   number of lm-projection operators is LMMAX =          32
 
 POTCAR:    PAW_PBE Mn 06Sep2000                  
   VRHFIN =Mn: d6 s1                                                            
   LEXCH  = PE                                                                  
   EATOM  =   416.7541 eV,   30.6306 Ry                                         
                                                                                
   TITEL  = PAW_PBE Mn 06Sep2000                                                
   LULTRA =        F    use ultrasoft PP ?                                      
   IUNSCR =        1    unscreen: 0-lin 1-nonlin 2-no                           
   RPACOR =    2.000    partial core radius                                     
   POMASS =   54.938; ZVAL   =    7.000    mass and valenz                      
   RCORE  =    2.300    outmost cutoff radius                                   
   RWIGS  =    2.500; RWIGS  =    1.323    wigner-seitz radius (au A)           
   ENMAX  =  269.864; ENMIN  =  202.398 eV                                      
   RCLOC  =    1.725    cutoff for local pot                                    
   LCOR   =        T    correct aug charges                                     
   LPAW   =        T    paw PP                                                  
   EAUG   =  500.711                                                            
   DEXC   =    0.000                                                            
   RMAX   =    2.343    core radius for proj-oper                               
   RAUG   =    1.300    factor for augmentation sphere                          
   RDEP   =    2.338    radius for radial grids                                 
   RDEPT  =    1.911    core radius for aug-charge                              
                                                                                
   Atomic configuration                                                         
    9 entries                                                                   
     n  l   j            E        occ.                                          
     1  0  0.50     -6424.8288   2.0000                                         
     2  0  0.50      -739.1154   2.0000                                         
     2  1  1.50      -625.3949   6.0000                                         
     3  0  0.50       -81.6100   2.0000                                         
     3  1  1.50       -50.4667   6.0000                                         
     3  2  2.50        -3.3745   6.0000                                         
     4  0  0.50        -4.1331   1.0000                                         
     4  1  0.50        -4.0817   0.0000                                         
     4  3  2.50        -1.3606   0.0000                                         
   Description                                                                  
     l       E           TYP  RCUT    TYP  RCUT                                 
     2     -3.3744664     23  2.300                                             
     2     -4.7350490     23  2.300                                             
     0     -4.1331408     23  2.300                                             
     0      7.6656614     23  2.300                                             
     1     -2.7211652     23  2.300                                             
     1     20.4087390     23  2.300                                             
  local pseudopotential read in
  partial core-charges read in
  partial kinetic energy density read in
  atomic valenz-charges read in
  non local Contribution for L=           2  read in
    real space projection operators read in
  non local Contribution for L=           2  read in
    real space projection operators read in
  non local Contribution for L=           0  read in
    real space projection operators read in
  non local Contribution for L=           0  read in
    real space projection operators read in
  non local Contribution for L=           1  read in
    real space projection operators read in
  non local Contribution for L=           1  read in
    real space projection operators read in
    PAW grid and wavefunctions read in
 
   number of l-projection  operators is LMAX  =           6
   number of lm-projection operators is LMMAX =          18
 
 POTCAR:    PAW_PBE Ni 02Aug2007                  
   VRHFIN =Ni:                                                                  
   LEXCH  = PE                                                                  
   EATOM  =  1077.6739 eV,   79.2068 Ry                                         
                                                                                
   TITEL  = PAW_PBE Ni 02Aug2007                                                
   LULTRA =        F    use ultrasoft PP ?                                      
   IUNSCR =        1    unscreen: 0-lin 1-nonlin 2-no                           
   RPACOR =    2.000    partial core radius                                     
   POMASS =   58.690; ZVAL   =   10.000    mass and valenz                      
   RCORE  =    2.300    outmost cutoff radius                                   
   RWIGS  =    2.430; RWIGS  =    1.286    wigner-seitz radius (au A)           
   ENMAX  =  269.532; ENMIN  =  202.149 eV                                      
   RCLOC  =    1.201    cutoff for local pot                                    
   LCOR   =        T    correct aug charges                                     
   LPAW   =        T    paw PP                                                  
   EAUG   =  544.565                                                            
   DEXC   =    0.000                                                            
   RMAX   =    2.357    core radius for proj-oper                               
   RAUG   =    1.300    factor for augmentation sphere                          
   RDEP   =    2.390    radius for radial grids                                 
   RDEPT  =    1.838    core radius for aug-charge                              
                                                                                
   Atomic configuration                                                         
    9 entries                                                                   
     n  l   j            E        occ.                                          
     1  0  0.50     -8206.4253   2.0000                                         
     2  0  0.50      -976.1748   2.0000                                         
     2  1  1.50      -839.0571   6.0000                                         
     3  0  0.50      -105.9991   2.0000                                         
     3  1  1.50       -66.4603   6.0000                                         
     3  2  2.50        -4.6458   9.0000                                         
     4  0  0.50        -4.4926   1.0000                                         
     4  1  1.50        -4.0817   0.0000                                         
     4  3  2.50        -1.3606   0.0000                                         
   Description                                                                  
     l       E           TYP  RCUT    TYP  RCUT                                 
     2     -4.6457903     23  2.300                                             
     2     -6.0063729     23  2.300                                             
     0     -4.4925590     23  2.300                                             
     0      5.0102601     23  2.300                                             
     1     -2.7211652     23  2.300                                             
     1     16.5183231     23  2.300                                             
  local pseudopotential read in
  partial core-charges read in
  partial kinetic energy density read in
  atomic valenz-charges read in
  non local Contribution for L=           2  read in
    real space projection operators read in
  non local Contribution for L=           2  read in
    real space projection operators read in
  non local Contribution for L=           0  read in
    real space projection operators read in
  non local Contribution for L=           0  read in
    real space projection operators read in
  non local Contribution for L=           1  read in
    real space projection operators read in
  non local Contribution for L=           1  read in
    real space projection operators read in
    PAW grid and wavefunctions read in
 
   number of l-projection  operators is LMAX  =           6
   number of lm-projection operators is LMMAX =          18
 
 POTCAR:    PAW_PBE O 08Apr2002                   
   VRHFIN =O: s2p4                                                              
   LEXCH  = PE                                                                  
   EATOM  =   432.3788 eV,   31.7789 Ry                                         
                                                                                
   TITEL  = PAW_PBE O 08Apr2002                                                 
   LULTRA =        F    use ultrasoft PP ?                                      
   IUNSCR =        1    unscreen: 0-lin 1-nonlin 2-no                           
   RPACOR =    1.200    partial core radius                                     
   POMASS =   16.000; ZVAL   =    6.000    mass and valenz                      
   RCORE  =    1.520    outmost cutoff radius                                   
   RWIGS  =    1.550; RWIGS  =    0.820    wigner-seitz radius (au A)           
   ENMAX  =  400.000; ENMIN  =  300.000 eV                                      
   ICORE  =        2    local potential                                         
   LCOR   =        T    correct aug charges                                     
   LPAW   =        T    paw PP                                                  
   EAUG   =  605.392                                                            
   DEXC   =    0.000                                                            
   RMAX   =    1.553    core radius for proj-oper                               
   RAUG   =    1.300    factor for augmentation sphere                          
   RDEP   =    1.550    radius for radial grids                                 
   RDEPT  =    1.329    core radius for aug-charge                              
                                                                                
   Atomic configuration                                                         
    4 entries                                                                   
     n  l   j            E        occ.                                          
     1  0  0.50      -514.6923   2.0000                                         
     2  0  0.50       -23.9615   2.0000                                         
     2  1  0.50        -9.0305   4.0000                                         
     3  2  1.50        -9.5241   0.0000                                         
   Description                                                                  
     l       E           TYP  RCUT    TYP  RCUT                                 
     0    -23.9615318     23  1.200                                             
     0     -9.5240782     23  1.200                                             
     1     -9.0304911     23  1.520                                             
     1      8.1634956     23  1.520                                             
     2     -9.5240782      7  1.500                                             
  local pseudopotential read in
  partial core-charges read in
  partial kinetic energy density read in
  kinetic energy density of atom read in
  atomic valenz-charges read in
  non local Contribution for L=           0  read in
    real space projection operators read in
  non local Contribution for L=           0  read in
    real space projection operators read in
  non local Contribution for L=           1  read in
    real space projection operators read in
  non local Contribution for L=           1  read in
    real space projection operators read in
    PAW grid and wavefunctions read in
 
   number of l-projection  operators is LMAX  =           4
   number of lm-projection operators is LMMAX =           8
 
 Optimization of the real space projectors (new method)

 maximal supplied QI-value         = 13.42
 optimisation between [QCUT,QGAM] = [ 11.67, 23.35] = [ 38.16,152.62] Ry 
 Optimized for a Real-space Cutoff    1.63 Angstroem

   l    n(q)    QCUT    max X(q) W(low)/X(q) W(high)/X(q)  e(spline) 
   0     11    11.673    13.882    0.27E-04    0.79E-05    0.11E-06
   0     11    11.673    12.184    0.39E-04    0.13E-04    0.19E-06
   1     11    11.673     4.523    0.73E-05    0.76E-05    0.12E-06
   1     11    11.673     4.424    0.87E-05    0.13E-04    0.19E-06
   2     10    11.673    52.481    0.65E-04    0.36E-04    0.18E-06
   2     10    11.673    38.501    0.61E-04    0.33E-04    0.17E-06
   3     10    11.673    65.631    0.17E-03    0.14E-03    0.37E-06
   3     10    11.673    56.854    0.17E-03    0.14E-03    0.37E-06
 Optimization of the real space projectors (new method)

 maximal supplied QI-value         = 16.25
 optimisation between [QCUT,QGAM] = [ 11.54, 23.24] = [ 37.28,151.24] Ry 
 Optimized for a Real-space Cutoff    1.53 Angstroem

   l    n(q)    QCUT    max X(q) W(low)/X(q) W(high)/X(q)  e(spline) 
   2     10    11.539   110.144    0.12E-03    0.13E-03    0.25E-06
   2     10    11.539   103.200    0.12E-03    0.13E-03    0.25E-06
   0     11    11.539    68.437    0.46E-04    0.21E-04    0.32E-06
   0     11    11.539    33.971    0.37E-04    0.19E-04    0.29E-06
   1     10    11.539    17.065    0.51E-04    0.22E-04    0.13E-06
   1     10    11.539    12.540    0.41E-04    0.18E-04    0.11E-06
 Optimization of the real space projectors (new method)

 maximal supplied QI-value         = 16.25
 optimisation between [QCUT,QGAM] = [ 11.54, 23.24] = [ 37.28,151.24] Ry 
 Optimized for a Real-space Cutoff    1.45 Angstroem

   l    n(q)    QCUT    max X(q) W(low)/X(q) W(high)/X(q)  e(spline) 
   2      9    11.539    60.317    0.19E-03    0.47E-04    0.16E-06
   2      9    11.539    55.921    0.19E-03    0.48E-04    0.16E-06
   0     10    11.539    51.690    0.80E-04    0.50E-04    0.24E-06
   0     10    11.539    30.015    0.73E-04    0.45E-04    0.22E-06
   1     10    11.539    18.849    0.87E-04    0.16E-03    0.71E-07
   1     10    11.539    14.624    0.73E-04    0.13E-03    0.64E-07
 Optimization of the real space projectors (new method)

 maximal supplied QI-value         = 24.76
 optimisation between [QCUT,QGAM] = [ 11.64, 23.27] = [ 37.91,151.63] Ry 
 Optimized for a Real-space Cutoff    1.14 Angstroem

   l    n(q)    QCUT    max X(q) W(low)/X(q) W(high)/X(q)  e(spline) 
   0      8    11.635    20.381    0.10E-03    0.33E-03    0.24E-06
   0      8    11.635    15.268    0.11E-03    0.35E-03    0.26E-06
   1      7    11.635     5.964    0.24E-03    0.31E-03    0.30E-06
   1      7    11.635     5.382    0.22E-03    0.25E-03    0.26E-06
  PAW_PBE La 06Sep2000                  :
 energy of atom  1       EATOM= -865.9763
 kinetic energy error for atom=    0.0009 (will be added to EATOM!!)
  PAW_PBE Mn 06Sep2000                  :
 energy of atom  2       EATOM= -416.7541
 kinetic energy error for atom=    0.0024 (will be added to EATOM!!)
  PAW_PBE Ni 02Aug2007                  :
 energy of atom  3       EATOM=-1077.6739
 kinetic energy error for atom=    0.0030 (will be added to EATOM!!)
  PAW_PBE O 08Apr2002                   :
 energy of atom  4       EATOM= -432.3788
 kinetic energy error for atom=    0.0208 (will be added to EATOM!!)
 
 
 POSCAR: SCEL5_5_1_1_0_1_1/4                     
  positions in direct lattice
  velocities in cartesian coordinates
 exchange correlation table for  LEXCH =        8
   RHO(1)=    0.500       N(1)  =     2000
   RHO(2)=  100.500       N(2)  =     4000
 


--------------------------------------------------------------------------------------------------------


 ion  position               nearest neighbor table
   1  0.795  0.795  0.616-  24 2.60  17 2.60  12 2.60  19 2.75  14 2.75  21 2.75  21 2.75  19 2.75
                            14 2.75   8 3.19   9 3.29   9 3.29   9 3.29   6 3.41   6 3.41   6 3.41
   2  0.605  0.605  0.184-  22 2.60  20 2.60  15 2.60  13 2.75  18 2.75  25 2.75  25 2.75  18 2.75
                            13 2.75   8 3.19  10 3.29  10 3.29  10 3.29   7 3.41   7 3.41   7 3.41
   3  0.396  0.396  0.811-  22 2.65  20 2.65  15 2.65  12 2.74  17 2.74  24 2.74  24 2.74  17 2.74
                            12 2.74  10 3.27   8 3.31   8 3.31   8 3.31
   4  0.200  0.200  0.400-  25 2.72  21 2.72  13 2.72  18 2.72  14 2.72  19 2.72  23 2.74  23 2.74
                            11 2.74  11 2.74  16 2.74  16 2.74  10 3.34   9 3.34   6 3.35   7 3.35
   5  0.004  0.004  0.989-  24 2.65  17 2.65  12 2.65  20 2.74  15 2.74  22 2.74  22 2.74  20 2.74
                            15 2.74   9 3.27   8 3.31   8 3.31   8 3.31
   6  0.500  0.500  0.500-  14 1.89  19 1.89  21 1.89  11 1.94  16 1.94  23 1.94   4 3.35   4 3.35
                             4 3.35   1 3.41   1 3.41   1 3.41
   7  0.900  0.900  0.300-  13 1.89  18 1.89  25 1.89  11 1.94  16 1.94  23 1.94   4 3.35   4 3.35
                             4 3.35   2 3.41   2 3.41   2 3.41
   8  0.700  0.700  0.900-  15 1.94  20 1.94  17 1.94  12 1.94  24 1.94  22 1.94   1 3.19   2 3.19
                             5 3.31   3 3.31   3 3.31   3 3.31   5 3.31   5 3.31
   9  0.101  0.101  0.698-  12 1.95  17 1.95  24 1.95  19 1.98  14 1.98  21 1.98   5 3.27   1 3.29
                             1 3.29   1 3.29   4 3.34
  10  0.299  0.299  0.102-  20 1.95  15 1.95  22 1.95  13 1.98  18 1.98  25 1.98   3 3.27   2 3.29
                             2 3.29   2 3.29   4 3.34
  11  0.200  0.700  0.400-   6 1.94   7 1.94   4 2.74   4 2.74
  12  0.401  0.900  0.800-   8 1.94   9 1.95   1 2.60   5 2.65   3 2.74   3 2.74
  13  0.604  0.096  0.204-   7 1.89  10 1.98   4 2.72   2 2.75   2 2.75
  14  0.796  0.304  0.596-   6 1.89   9 1.98   4 2.72   1 2.75   1 2.75
  15  0.999  0.500  0.000-   8 1.94  10 1.95   2 2.60   3 2.65   5 2.74   5 2.74
  16  0.700  0.200  0.400-   6 1.94   7 1.94   4 2.74   4 2.74
  17  0.900  0.401  0.800-   8 1.94   9 1.95   1 2.60   5 2.65   3 2.74   3 2.74
  18  0.096  0.604  0.204-   7 1.89  10 1.98   4 2.72   2 2.75   2 2.75
  19  0.304  0.796  0.596-   6 1.89   9 1.98   4 2.72   1 2.75   1 2.75
  20  0.500  0.999  0.000-   8 1.94  10 1.95   2 2.60   3 2.65   5 2.74   5 2.74
  21  0.304  0.304  0.596-   6 1.89   9 1.98   4 2.72   1 2.75   1 2.75
  22  0.500  0.500  0.000-   8 1.94  10 1.95   2 2.60   3 2.65   5 2.74   5 2.74
  23  0.700  0.700  0.400-   7 1.94   6 1.94   4 2.74   4 2.74
  24  0.900  0.900  0.800-   8 1.94   9 1.95   1 2.60   5 2.65   3 2.74   3 2.74
  25  0.096  0.096  0.204-   7 1.89  10 1.98   4 2.72   2 2.75   2 2.75
 
  LATTYP: Found a trigonal (rhomboedric) cell.
 ALAT       =    11.6593953971
 COS(alpha) =     0.8898598095
  
  Lattice vectors:
  
 A1 = (   7.7695213514,  -3.9000739886,  -7.7695213417)
 A2 = (   7.7695213514,  -7.7695213417,  -3.9000739886)
 A3 = (   3.9000739984,  -7.7695213418,  -7.7695213418)


Analysis of symmetry for initial positions (statically):
=====================================================================
 Subroutine PRICEL returns:
 Original cell was already a primitive cell.
 

 Routine SETGRP: Setting up the symmetry group for a 
 trigonal (rhombohedral) supercell.


 Subroutine GETGRP returns: Found 12 space group operations
 (whereof  6 operations were pure point group operations)
 out of a pool of 12 trial point group operations.


The static configuration has the point symmetry C_3v.
 The point group associated with its full space group is D_3d.


Analysis of symmetry for dynamics (positions and initial velocities):
=====================================================================
 Subroutine PRICEL returns:
 Original cell was already a primitive cell.
 

 Routine SETGRP: Setting up the symmetry group for a 
 trigonal (rhombohedral) supercell.


 Subroutine GETGRP returns: Found 12 space group operations
 (whereof  6 operations were pure point group operations)
 out of a pool of 12 trial point group operations.


The dynamic configuration has the point symmetry C_3v.
 The point group associated with its full space group is D_3d.


Analysis of structural, dynamic, and magnetic symmetry:
=====================================================================
 Subroutine PRICEL returns:
 Original cell was already a primitive cell.
 

 Routine SETGRP: Setting up the symmetry group for a 
 trigonal (rhombohedral) supercell.


 Subroutine GETGRP returns: Found 12 space group operations
 (whereof  6 operations were pure point group operations)
 out of a pool of 12 trial point group operations.


The magnetic configuration has the point symmetry C_3v.
 The point group associated with its full space group is D_3d.


 Subroutine INISYM returns: Found 12 space group operations
 (whereof  6 operations are pure point group operations),
 and found     1 'primitive' translations

 
 
 KPOINTS: Automatic mesh                          

Automatic generation of k-mesh.
 generate k-points for:    4    4    2
Space group operators:
 irot       det(A)        alpha          n_x          n_y          n_z        tau_x        tau_y        tau_z
    1     1.000000     0.000000     1.000000     0.000000     0.000000     0.000000     0.000000     0.000000
    2    -1.000000   180.000000     0.707107     0.000000     0.707107     0.000000     0.000000     0.000000
    3     1.000000   120.000000    -0.577350     0.577350     0.577350     0.000000     0.000000     0.000000
    4    -1.000000   180.000000     0.000000    -0.707107     0.707107     0.000000     0.000000     0.000000
    5     1.000000   120.000000     0.577350    -0.577350    -0.577350     0.000000     0.000000     0.000000
    6    -1.000000   180.000000     0.707107     0.707107     0.000000     0.000000     0.000000     0.000000
    7    -1.000000     0.000000     1.000000     0.000000     0.000000     0.400000     0.400000    -1.200000
    8     1.000000   180.000000     0.707107     0.000000     0.707107     0.400000     0.400000    -1.200000
    9    -1.000000   120.000000    -0.577350     0.577350     0.577350     0.400000     0.400000    -1.200000
   10     1.000000   180.000000     0.000000    -0.707107     0.707107     0.400000     0.400000    -1.200000
   11    -1.000000   120.000000     0.577350    -0.577350    -0.577350     0.400000     0.400000    -1.200000
   12     1.000000   180.000000     0.707107     0.707107     0.000000     0.400000     0.400000    -1.200000
 
 Subroutine IBZKPT returns following result:
 ===========================================
 
 Found     11 irreducible k-points:
 
 Following reciprocal coordinates:
            Coordinates               Weight
  0.000000  0.000000  0.000000      1.000000
  0.250000 -0.000000  0.000000      4.000000
  0.500000 -0.000000  0.000000      3.000000
  0.250000  0.250000 -0.000000      2.000000
  0.500000  0.250000 -0.000000      8.000000
 -0.250000  0.250000  0.000000      2.000000
  0.500000  0.500000 -0.000000      3.000000
 -0.000000 -0.000000  0.500000      1.000000
  0.250000  0.000000  0.500000      4.000000
  0.250000  0.250000  0.500000      2.000000
 -0.250000  0.250000  0.500000      2.000000
 
 Following cartesian coordinates:
            Coordinates               Weight
  0.000000  0.000000  0.000000      1.000000
  0.025823 -0.025823  0.038786      4.000000
  0.051646 -0.051646  0.077571      3.000000
  0.051646  0.012962  0.012962      2.000000
  0.077469 -0.012861  0.051748      8.000000
  0.000000  0.064609 -0.064609      2.000000
  0.103293  0.025925  0.025925      3.000000
 -0.025721  0.025721  0.025721      1.000000
  0.000102 -0.000102  0.064507      4.000000
  0.025925  0.038684  0.038684      2.000000
 -0.025721  0.090330 -0.038887      2.000000
 
 TETIRR: Found     48 inequivalent tetrahedra from      192


--------------------------------------------------------------------------------------------------------




 Dimension of arrays:
   k-points           NKPTS =     11   k-points in BZ     NKDIM =     11   number of bands    NBANDS=    122
   number of dos      NEDOS =    301   number of ions     NIONS =     25
   non local maximal  LDIM  =      8   non local SUM 2l+1 LMDIM =     32
   total plane-waves  NPLWV = 158760
   max r-space proj   IRMAX =   9894   max aug-charges    IRDMAX=  28698
   dimension x,y,z NGX =    42 NGY =   42 NGZ =   90
   dimension x,y,z NGXF=    84 NGYF=   84 NGZF=  180
   support grid    NGXF=    84 NGYF=   84 NGZF=  180
   ions per type =               5   2   3  15
   NGX,Y,Z   is equivalent  to a cutoff of  12.76, 12.76, 12.83 a.u.
   NGXF,Y,Z  is equivalent  to a cutoff of  25.52, 25.52, 25.67 a.u.

 SYSTEM =  final                                   
 POSCAR =  SCEL5_5_1_1_0_1_1/4                     

 Startparameter for this run:
   NWRITE =      2    write-flag & timer
   PREC   = accura    normal or accurate (medium, high low for compatibility)
   ISTART =      0    job   : 0-new  1-cont  2-samecut
   ICHARG =      1    charge: 1-file 2-atom 10-const
   ISPIN  =      2    spin polarized calculation?
   LNONCOLLINEAR =      F non collinear calculations
   LSORBIT =      F    spin-orbit coupling
   INIWAV =      1    electr: 0-lowe 1-rand  2-diag
   LASPH  =      F    aspherical Exc in radial PAW
   METAGGA=      F    non-selfconsistent MetaGGA calc.

 Electronic Relaxation 1
   ENCUT  =  520.0 eV  38.22 Ry    6.18 a.u.  10.17 10.17 21.68*2*pi/ulx,y,z
   ENINI  =  520.0     initial cutoff
   ENAUG  =  605.4 eV  augmentation charge cutoff
   NELM   =    100;   NELMIN=  2; NELMDL= -5     # of ELM steps 
   EDIFF  = 0.1E-02   stopping-criterion for ELM
   LREAL  =      T    real-space projection
   NLSPLINE    = F    spline interpolate recip. space projectors
   LCOMPAT=      F    compatible to vasp.4.4
   GGA_COMPAT  = T    GGA compatible to vasp.4.4-vasp.4.6
   LMAXPAW     = -100 max onsite density
   LMAXMIX     =    6 max onsite mixed and CHGCAR
   VOSKOWN=      0    Vosko Wilk Nusair interpolation
   ROPT   =   -0.00025  -0.00025  -0.00025  -0.00025
 Ionic relaxation
   EDIFFG = 0.1E-01   stopping-criterion for IOM
   NSW    =      0    number of steps for IOM
   NBLOCK =      1;   KBLOCK =      1    inner block; outer block 
   IBRION =     -1    ionic relax: 0-MD 1-quasi-New 2-CG
   NFREE  =      0    steps in history (QN), initial steepest desc. (CG)
   ISIF   =      2    stress and relaxation
   IWAVPR =     10    prediction:  0-non 1-charg 2-wave 3-comb
   ISYM   =      2    0-nonsym 1-usesym 2-fastsym
   LCORR  =      T    Harris-Foulkes like correction to forces

   POTIM  = 0.5000    time-step for ionic-motion
   TEIN   =    0.0    initial temperature
   TEBEG  =    0.0;   TEEND  =   0.0 temperature during run
   SMASS  =  -3.00    Nose mass-parameter (am)
   estimated Nose-frequenzy (Omega)   =  0.10E-29 period in steps =****** mass=  -0.684E-27a.u.
   SCALEE = 1.0000    scale energy and forces
   NPACO  =    256;   APACO  = 16.0  distance and # of slots for P.C.
   PSTRESS=    0.0 pullay stress

  Mass of Ions in am
   POMASS = 138.90 54.94 58.69 16.00
  Ionic Valenz
   ZVAL   =  11.00  7.00 10.00  6.00
  Atomic Wigner-Seitz radii
   RWIGS  =  -1.00 -1.00 -1.00 -1.00
  virtual crystal weights 
   VCA    =   1.00  1.00  1.00  1.00
   NELECT =     189.0000    total number of electrons
   NUPDOWN=      -1.0000    fix difference up-down

 DOS related values:
   EMIN   =  10.00;   EMAX   =-10.00  energy-range for DOS
   EFERMI =   0.00
   ISMEAR =    -5;   SIGMA  =   0.05  broadening in eV -4-tet -1-fermi 0-gaus

 Electronic relaxation 2 (details)
   IALGO  =     68    algorithm
   LDIAG  =      T    sub-space diagonalisation (order eigenvalues)
   LSUBROT=      F    optimize rotation matrix (better conditioning)
   TURBO    =      0    0=normal 1=particle mesh
   IRESTART =      0    0=no restart 2=restart with 2 vectors
   NREBOOT  =      0    no. of reboots
   NMIN     =      0    reboot dimension
   EREF     =   0.00    reference energy to select bands
   IMIX   =      4    mixing-type and parameters
     AMIX     =   0.40;   BMIX     =  1.00
     AMIX_MAG =   1.60;   BMIX_MAG =  1.00
     AMIN     =   0.10
     WC   =   100.;   INIMIX=   1;  MIXPRE=   1;  MAXMIX= -45

 Intra band minimization:
   WEIMIN = 0.0000     energy-eigenvalue tresh-hold
   EBREAK =  0.20E-05  absolut break condition
   DEPER  =   0.30     relativ break condition  

   TIME   =   0.40     timestep for ELM

  volume/ion in A,a.u.               =      11.64        78.57
  Fermi-wavevector in a.u.,A,eV,Ry     =   1.417655  2.678980 27.344260  2.009746
  Thomas-Fermi vector in A             =   2.538863
 
 Write flags
   LWAVE        =      F    write WAVECAR
   LDOWNSAMPLE  =      F    k-point downsampling of WAVECAR
   LCHARG       =      T    write CHGCAR
   LVTOT        =      F    write LOCPOT, total local potential
   LVHAR        =      F    write LOCPOT, Hartree potential only
   LELF         =      F    write electronic localiz. function (ELF)
   LORBIT       =     11    0 simple, 1 ext, 2 COOP (PROOUT), +10 PAW based schemes


 Dipole corrections
   LMONO  =      F    monopole corrections only (constant potential shift)
   LDIPOL =      F    correct potential (dipole corrections)
   IDIPOL =      0    1-x, 2-y, 3-z, 4-all directions 
   EPSILON=  1.0000000 bulk dielectric constant

 LDA+U is selected, type is set to LDAUTYPE =  2
   angular momentum for each species LDAUL =     0    2    2    0
   U (eV)           for each species LDAUU =   0.0  3.9  6.2  0.0
   J (eV)           for each species LDAUJ =   0.0  0.0  0.0  0.0
 Exchange correlation treatment:
   GGA     =    --    GGA type
   LEXCH   =     8    internal setting for exchange type
   VOSKOWN=      0    Vosko Wilk Nusair interpolation
   LHFCALC =     F    Hartree Fock is set to
   LHFONE  =     F    Hartree Fock one center treatment
   AEXX    =    0.0000 exact exchange contribution

 Linear response parameters
   LEPSILON=     F    determine dielectric tensor
   LRPA    =     F    only Hartree local field effects (RPA)
   LNABLA  =     F    use nabla operator in PAW spheres
   LVEL    =     F    velocity operator in full k-point grid
   LINTERFAST=   F  fast interpolation
   KINTER  =     0    interpolate to denser k-point grid
   CSHIFT  =0.1000    complex shift for real part using Kramers Kronig
   OMEGAMAX=  -1.0    maximum frequency
   DEG_THRESHOLD= 0.2000000E-02 threshold for treating states as degnerate
   RTIME   =   -0.100 relaxation time in fs
  (WPLASMAI=    0.000 imaginary part of plasma frequency in eV, 0.658/RTIME)
   DFIELD  = 0.0000000 0.0000000 0.0000000 field for delta impulse in time
 
 Orbital magnetization related:
   ORBITALMAG=     F  switch on orbital magnetization
   LCHIMAG   =     F  perturbation theory with respect to B field
   DQ        =  0.001000  dq finite difference perturbation B field
   LLRAUG    =     F  two centre corrections for induced B field



--------------------------------------------------------------------------------------------------------


 Static calculation
 charge density and potential will be updated during run
 spin polarized calculation
 RMM-DIIS sequential band-by-band and
  variant of blocked Davidson during initial phase
 perform sub-space diagonalisation
    before iterative eigenvector-optimisation
 modified Broyden-mixing scheme, WC =      100.0
 initial mixing is a Kerker type mixing with AMIX =  0.4000 and BMIX =      1.0000
 Hartree-type preconditioning will be used
 using additional bands           27
 real space projection scheme for non local part
 use partial core corrections
 calculate Harris-corrections to forces 
   (improved forces if not selfconsistent)
 use gradient corrections 
 use of overlap-Matrix (Vanderbilt PP)
 Fermi weights with tetrahedron method with Bloechl corrections


--------------------------------------------------------------------------------------------------------


  energy-cutoff  :      520.00
  volume of cell :      291.05
      direct lattice vectors                 reciprocal lattice vectors
     3.869447353  0.000000000  3.869447353     0.103292502 -0.103292502  0.155142337
     3.869447353  3.869447353  0.000000000     0.103292502  0.155142337 -0.103292502
    -3.900073998  7.769521342  7.769521342    -0.051442667  0.051442667  0.051442667

  length of vectors
     5.472224926  5.472224926 11.659395394     0.213091122  0.213091122  0.089101312


 
 k-points in units of 2pi/SCALE and weight: Automatic mesh                          
   0.00000000  0.00000000  0.00000000       0.031
   0.02582313 -0.02582313  0.03878558       0.125
   0.05164625 -0.05164625  0.07757117       0.094
   0.05164625  0.01296246  0.01296246       0.062
   0.07746938 -0.01286067  0.05174804       0.250
   0.00000000  0.06460871 -0.06460871       0.062
   0.10329250  0.02592492  0.02592492       0.094
  -0.02572133  0.02572133  0.02572133       0.031
   0.00010179 -0.00010179  0.06450692       0.125
   0.02592492  0.03868379  0.03868379       0.062
  -0.02572133  0.09033004 -0.03888738       0.062
 
 k-points in reciprocal lattice and weights: Automatic mesh                          
   0.00000000  0.00000000  0.00000000       0.031
   0.25000000 -0.00000000  0.00000000       0.125
   0.50000000 -0.00000000  0.00000000       0.094
   0.25000000  0.25000000 -0.00000000       0.062
   0.50000000  0.25000000 -0.00000000       0.250
  -0.25000000  0.25000000  0.00000000       0.062
   0.50000000  0.50000000 -0.00000000       0.094
  -0.00000000 -0.00000000  0.50000000       0.031
   0.25000000  0.00000000  0.50000000       0.125
   0.25000000  0.25000000  0.50000000       0.062
  -0.25000000  0.25000000  0.50000000       0.062
 
 position of ions in fractional coordinates (direct lattice) 
   0.79478064  0.79478064  0.61565809
   0.60521936  0.60521936  0.18434191
   0.39646814  0.39646814  0.81059557
   0.20000000  0.20000000  0.40000000
   0.00353186  0.00353186  0.98940443
   0.49990334  0.49990334  0.50028997
   0.90009666  0.90009666  0.29971003
   0.70000000  0.70000000  0.90000000
   0.10067626  0.10067626  0.69797123
   0.29932374  0.29932374  0.10202877
   0.20000000  0.70000000  0.40000000
   0.40104499  0.89969269  0.79956963
   0.60442383  0.09563626  0.20430365
   0.79557617  0.30436374  0.59569635
   0.99895501  0.50030731  0.00043037
   0.70000000  0.20000000  0.40000000
   0.89969269  0.40104499  0.79956963
   0.09563626  0.60442383  0.20430365
   0.30436374  0.79557617  0.59569635
   0.50030731  0.99895501  0.00043037
   0.30436374  0.30436374  0.59569635
   0.50030731  0.50030731  0.00043037
   0.70000000  0.70000000  0.40000000
   0.89969269  0.89969269  0.79956963
   0.09563626  0.09563626  0.20430365
 
 position of ions in cartesian coordinates  (Angst):
   3.74961152  7.85873053  7.85873053
   3.96478187  3.77411284  3.77411284
  -0.09315746  7.83205216  7.83205216
  -0.01225066  3.88169801  3.88169801
  -3.83141785  7.70086519  7.70086519
   1.91753141  5.82136329  5.82136329
   5.79686198  5.81148008  5.81148008
   1.90715970  9.70118235  9.70118235
  -1.94301653  5.81246387  5.81246387
   1.91851521  1.95093214  1.95093214
   1.92247302  5.81642168  3.88169801
   1.91475527  9.69358678  7.76409574
   1.91204628  1.95740107  3.92612779
   1.93289975  5.80599495  7.70671557
   5.79963812  1.93925659  3.86874763
   1.92247302  3.88169801  5.81642168
   1.91475527  7.76409574  9.69358678
   1.91204628  3.92612779  1.95740107
   1.93289975  7.70671557  5.80599495
   5.79963812  3.86874763  1.93925659
   0.03217913  5.80599495  5.80599495
   3.87014708  1.93925659  1.93925659
   3.85719669  5.81642168  5.81642168
   3.84424631  9.69358678  9.69358678
  -0.05668044  1.95740107  1.95740107
 


--------------------------------------------------------------------------------------------------------


 k-point  1 :   0.0000 0.0000 0.0000  plane waves:    7829
 k-point  2 :   0.2500-0.0000 0.0000  plane waves:    7840
 k-point  3 :   0.5000-0.0000 0.0000  plane waves:    7824
 k-point  4 :   0.2500 0.2500-0.0000  plane waves:    7827
 k-point  5 :   0.5000 0.2500-0.0000  plane waves:    7842
 k-point  6 :  -0.2500 0.2500 0.0000  plane waves:    7858
 k-point  7 :   0.5000 0.5000-0.0000  plane waves:    7854
 k-point  8 :  -0.0000-0.0000 0.5000  plane waves:    7830
 k-point  9 :   0.2500 0.0000 0.5000  plane waves:    7838
 k-point 10 :   0.2500 0.2500 0.5000  plane waves:    7837
 k-point 11 :  -0.2500 0.2500 0.5000  plane waves:    7818

 maximum and minimum number of plane-waves per node :       801      763

 maximum number of plane-waves:      7858
 maximum index in each direction: 
   IXMAX=   10   IYMAX=   10   IZMAX=   21
   IXMIN=  -10   IYMIN=  -10   IZMIN=  -22


 real space projection operators:
  total allocation   :      20100.44 KBytes
  max/ min on nodes  :       2388.23       1898.30


 parallel 3D FFT for wavefunctions:
    minimum data exchange during FFTs selected (reduces bandwidth)
 parallel 3D FFT for charge:
    minimum data exchange during FFTs selected (reduces bandwidth)


 total amount of memory used by VASP MPI-rank0    67380. kBytes
=======================================================================

   base      :      30000. kBytes
   nonlr-proj:       7134. kBytes
   fftplans  :       3030. kBytes
   grid      :       8843. kBytes
   one-center:        294. kBytes
   wavefun   :      18079. kBytes
 
     INWAV:  cpu time    0.0000: real time    0.0000
 Broyden mixing: mesh for mixing (old mesh)
   NGX = 21   NGY = 21   NGZ = 43
  (NGX  = 84   NGY  = 84   NGZ  =180)
  gives a total of  18963 points

 initial charge density was supplied:
 charge density of overlapping atoms calculated
 number of electron     189.0000000 magnetization      17.0000000
 keeping initial charge density in first step


--------------------------------------------------------------------------------------------------------


 Maximum index for non-local projection operator         1386
 Maximum index for augmentation-charges         2061 (set IRDMAX)


--------------------------------------------------------------------------------------------------------


 First call to EWALD:  gamma=   0.267
 Maximum number of real-space cells 4x 4x 2
 Maximum number of reciprocal cells 2x 2x 4

    FEWALD:  cpu time    0.0031: real time    0.0031


--------------------------------------- Iteration      1(   1)  ---------------------------------------


    POTLOK:  cpu time    0.0814: real time    0.0851
    SETDIJ:  cpu time    0.0154: real time    0.0156
atom =   1  type =  1  l = 0
 
 onsite density matrix
 
spin component  1
 
  1.0989
 
spin component  2
 
  1.0989
 
 occupancies and eigenvectors
 
  o =  1.0989  v =  1.0000  0.0000      0.0000  0.0000
  o =  1.0989  v =  0.0000  1.0000      0.0000  0.0000
atom =   2  type =  1  l = 0
 
 onsite density matrix
 
spin component  1
 
  1.0989
 
spin component  2
 
  1.0989
 
 occupancies and eigenvectors
 
  o =  1.0989  v =  1.0000  0.0000      0.0000  0.0000
  o =  1.0989  v =  0.0000  1.0000      0.0000  0.0000
atom =   3  type =  1  l = 0
 
 onsite density matrix
 
spin component  1
 
  1.0989
 
spin component  2
 
  1.0989
 
 occupancies and eigenvectors
 
  o =  1.0989  v =  1.0000  0.0000      0.0000  0.0000
  o =  1.0989  v =  0.0000  1.0000      0.0000  0.0000
atom =   4  type =  1  l = 0
 
 onsite density matrix
 
spin component  1
 
  1.0989
 
spin component  2
 
  1.0989
 
 occupancies and eigenvectors
 
  o =  1.0989  v =  1.0000  0.0000      0.0000  0.0000
  o =  1.0989  v =  0.0000  1.0000      0.0000  0.0000
atom =   5  type =  1  l = 0
 
 onsite density matrix
 
spin component  1
 
  1.0989
 
spin component  2
 
  1.0989
 
 occupancies and eigenvectors
 
  o =  1.0989  v =  1.0000  0.0000      0.0000  0.0000
  o =  1.0989  v =  0.0000  1.0000      0.0000  0.0000
atom =   6  type =  2  l = 2
 
 onsite density matrix
 
spin component  1
 
  0.8272  0.0000  0.0000  0.0000  0.0000
  0.0000  0.8272  0.0000  0.0000  0.0000
  0.0000  0.0000  0.8272  0.0000  0.0000
  0.0000  0.0000  0.0000  0.8272  0.0000
  0.0000  0.0000  0.0000  0.0000  0.8272
 
spin component  2
 
  0.2256  0.0000  0.0000  0.0000  0.0000
  0.0000  0.2256  0.0000  0.0000  0.0000
  0.0000  0.0000  0.2256  0.0000  0.0000
  0.0000  0.0000  0.0000  0.2256  0.0000
  0.0000  0.0000  0.0000  0.0000  0.2256
 
 occupancies and eigenvectors
 
  o =  0.2256  v =  0.0000  0.0000  0.0000  0.0000  0.0000  0.0000  0.0000  1.0000  0.0000  0.0000      0.0000  0.0000  0.0000  0.0000  0.0000  0.0000  0.0000  0.0000  0.0000  0.0000
  o =  0.2256  v =  0.0000  0.0000  0.0000  0.0000  0.0000  1.0000  0.0000  0.0000  0.0000  0.0000      0.0000  0.0000  0.0000  0.0000  0.0000  0.0000  0.0000  0.0000  0.0000  0.0000
  o =  0.2256  v =  0.0000  0.0000  0.0000  0.0000  0.0000  0.0000  1.0000  0.0000  0.0000  0.0000      0.0000  0.0000  0.0000  0.0000  0.0000  0.0000  0.0000  0.0000  0.0000  0.0000
  o =  0.2256  v =  0.0000  0.0000  0.0000  0.0000  0.0000  0.0000  0.0000  0.0000  1.0000  0.0000      0.0000  0.0000  0.0000  0.0000  0.0000  0.0000  0.0000  0.0000  0.0000  0.0000
  o =  0.2256  v =  0.0000  0.0000  0.0000  0.0000  0.0000  0.0000  0.0000  0.0000  0.0000  1.0000      0.0000  0.0000  0.0000  0.0000  0.0000  0.0000  0.0000  0.0000  0.0000  0.0000
  o =  0.8272  v =  0.0000  1.0000  0.0000  0.0000  0.0000  0.0000  0.0000  0.0000  0.0000  0.0000      0.0000  0.0000  0.0000  0.0000  0.0000  0.0000  0.0000  0.0000  0.0000  0.0000
  o =  0.8272  v =  0.0000  0.0000  1.0000  0.0000  0.0000  0.0000  0.0000  0.0000  0.0000  0.0000      0.0000  0.0000  0.0000  0.0000  0.0000  0.0000  0.0000  0.0000  0.0000  0.0000
  o =  0.8272  v =  1.0000  0.0000  0.0000  0.0000  0.0000  0.0000  0.0000  0.0000  0.0000  0.0000      0.0000  0.0000  0.0000  0.0000  0.0000  0.0000  0.0000  0.0000  0.0000  0.0000
  o =  0.8272  v =  0.0000  0.0000  0.0000  1.0000  0.0000  0.0000  0.0000  0.0000  0.0000  0.0000      0.0000  0.0000  0.0000  0.0000  0.0000  0.0000  0.0000  0.0000  0.0000  0.0000
  o =  0.8272  v =  0.0000  0.0000  0.0000  0.0000  1.0000  0.0000  0.0000  0.0000  0.0000  0.0000      0.0000  0.0000  0.0000  0.0000  0.0000  0.0000  0.0000  0.0000  0.0000  0.0000
atom =   7  type =  2  l = 2
 
 onsite density matrix
 
spin component  1
 
  0.8272  0.0000  0.0000  0.0000  0.0000
  0.0000  0.8272  0.0000  0.0000  0.0000
  0.0000  0.0000  0.8272  0.0000  0.0000
  0.0000  0.0000  0.0000  0.8272  0.0000
  0.0000  0.0000  0.0000  0.0000  0.8272
 
spin component  2
 
  0.2256  0.0000  0.0000  0.0000  0.0000
  0.0000  0.2256  0.0000  0.0000  0.0000
  0.0000  0.0000  0.2256  0.0000  0.0000
  0.0000  0.0000  0.0000  0.2256  0.0000
  0.0000  0.0000  0.0000  0.0000  0.2256
 
 occupancies and eigenvectors
 
  o =  0.2256  v =  0.0000  0.0000  0.0000  0.0000  0.0000  0.0000  0.0000  1.0000  0.0000  0.0000      0.0000  0.0000  0.0000  0.0000  0.0000  0.0000  0.0000  0.0000  0.0000  0.0000
  o =  0.2256  v =  0.0000  0.0000  0.0000  0.0000  0.0000  1.0000  0.0000  0.0000  0.0000  0.0000      0.0000  0.0000  0.0000  0.0000  0.0000  0.0000  0.0000  0.0000  0.0000  0.0000
  o =  0.2256  v =  0.0000  0.0000  0.0000  0.0000  0.0000  0.0000  1.0000  0.0000  0.0000  0.0000      0.0000  0.0000  0.0000  0.0000  0.0000  0.0000  0.0000  0.0000  0.0000  0.0000
  o =  0.2256  v =  0.0000  0.0000  0.0000  0.0000  0.0000  0.0000  0.0000  0.0000  1.0000  0.0000      0.0000  0.0000  0.0000  0.0000  0.0000  0.0000  0.0000  0.0000  0.0000  0.0000
  o =  0.2256  v =  0.0000  0.0000  0.0000  0.0000  0.0000  0.0000  0.0000  0.0000  0.0000  1.0000      0.0000  0.0000  0.0000  0.0000  0.0000  0.0000  0.0000  0.0000  0.0000  0.0000
  o =  0.8272  v =  0.0000  1.0000  0.0000  0.0000  0.0000  0.0000  0.0000  0.0000  0.0000  0.0000      0.0000  0.0000  0.0000  0.0000  0.0000  0.0000  0.0000  0.0000  0.0000  0.0000
  o =  0.8272  v =  0.0000  0.0000  1.0000  0.0000  0.0000  0.0000  0.0000  0.0000  0.0000  0.0000      0.0000  0.0000  0.0000  0.0000  0.0000  0.0000  0.0000  0.0000  0.0000  0.0000
  o =  0.8272  v =  1.0000  0.0000  0.0000  0.0000  0.0000  0.0000  0.0000  0.0000  0.0000  0.0000      0.0000  0.0000  0.0000  0.0000  0.0000  0.0000  0.0000  0.0000  0.0000  0.0000
  o =  0.8272  v =  0.0000  0.0000  0.0000  1.0000  0.0000  0.0000  0.0000  0.0000  0.0000  0.0000      0.0000  0.0000  0.0000  0.0000  0.0000  0.0000  0.0000  0.0000  0.0000  0.0000
  o =  0.8272  v =  0.0000  0.0000  0.0000  0.0000  1.0000  0.0000  0.0000  0.0000  0.0000  0.0000      0.0000  0.0000  0.0000  0.0000  0.0000  0.0000  0.0000  0.0000  0.0000  0.0000
atom =   8  type =  3  l = 2
 
 onsite density matrix
 
spin component  1
 
  1.1008  0.0000  0.0000  0.0000  0.0000
  0.0000  1.1008  0.0000  0.0000  0.0000
  0.0000  0.0000  1.1008  0.0000  0.0000
  0.0000  0.0000  0.0000  1.1008  0.0000
  0.0000  0.0000  0.0000  0.0000  1.1008
 
spin component  2
 
  0.5927  0.0000  0.0000  0.0000  0.0000
  0.0000  0.5927  0.0000  0.0000  0.0000
  0.0000  0.0000  0.5927  0.0000  0.0000
  0.0000  0.0000  0.0000  0.5927  0.0000
  0.0000  0.0000  0.0000  0.0000  0.5927
 
 occupancies and eigenvectors
 
  o =  0.5927  v =  0.0000  0.0000  0.0000  0.0000  0.0000  1.0000  0.0000  0.0000  0.0000  0.0000      0.0000  0.0000  0.0000  0.0000  0.0000  0.0000  0.0000  0.0000  0.0000  0.0000
  o =  0.5927  v =  0.0000  0.0000  0.0000  0.0000  0.0000  0.0000  1.0000  0.0000  0.0000  0.0000      0.0000  0.0000  0.0000  0.0000  0.0000  0.0000  0.0000  0.0000  0.0000  0.0000
  o =  0.5927  v =  0.0000  0.0000  0.0000  0.0000  0.0000  0.0000  0.0000  1.0000  0.0000  0.0000      0.0000  0.0000  0.0000  0.0000  0.0000  0.0000  0.0000  0.0000  0.0000  0.0000
  o =  0.5927  v =  0.0000  0.0000  0.0000  0.0000  0.0000  0.0000  0.0000  0.0000  1.0000  0.0000      0.0000  0.0000  0.0000  0.0000  0.0000  0.0000  0.0000  0.0000  0.0000  0.0000
  o =  0.5927  v =  0.0000  0.0000  0.0000  0.0000  0.0000  0.0000  0.0000  0.0000  0.0000  1.0000      0.0000  0.0000  0.0000  0.0000  0.0000  0.0000  0.0000  0.0000  0.0000  0.0000
  o =  1.1008  v =  1.0000  0.0000  0.0000  0.0000  0.0000  0.0000  0.0000  0.0000  0.0000  0.0000      0.0000  0.0000  0.0000  0.0000  0.0000  0.0000  0.0000  0.0000  0.0000  0.0000
  o =  1.1008  v =  0.0000  1.0000  0.0000  0.0000  0.0000  0.0000  0.0000  0.0000  0.0000  0.0000      0.0000  0.0000  0.0000  0.0000  0.0000  0.0000  0.0000  0.0000  0.0000  0.0000
  o =  1.1008  v =  0.0000  0.0000  1.0000  0.0000  0.0000  0.0000  0.0000  0.0000  0.0000  0.0000      0.0000  0.0000  0.0000  0.0000  0.0000  0.0000  0.0000  0.0000  0.0000  0.0000
  o =  1.1008  v =  0.0000  0.0000  0.0000  1.0000  0.0000  0.0000  0.0000  0.0000  0.0000  0.0000      0.0000  0.0000  0.0000  0.0000  0.0000  0.0000  0.0000  0.0000  0.0000  0.0000
  o =  1.1008  v =  0.0000  0.0000  0.0000  0.0000  1.0000  0.0000  0.0000  0.0000  0.0000  0.0000      0.0000  0.0000  0.0000  0.0000  0.0000  0.0000  0.0000  0.0000  0.0000  0.0000
atom =   9  type =  3  l = 2
 
 onsite density matrix
 
spin component  1
 
  1.1008  0.0000  0.0000  0.0000  0.0000
  0.0000  1.1008  0.0000  0.0000  0.0000
  0.0000  0.0000  1.1008  0.0000  0.0000
  0.0000  0.0000  0.0000  1.1008  0.0000
  0.0000  0.0000  0.0000  0.0000  1.1008
 
spin component  2
 
  0.5927  0.0000  0.0000  0.0000  0.0000
  0.0000  0.5927  0.0000  0.0000  0.0000
  0.0000  0.0000  0.5927  0.0000  0.0000
  0.0000  0.0000  0.0000  0.5927  0.0000
  0.0000  0.0000  0.0000  0.0000  0.5927
 
 occupancies and eigenvectors
 
  o =  0.5927  v =  0.0000  0.0000  0.0000  0.0000  0.0000  1.0000  0.0000  0.0000  0.0000  0.0000      0.0000  0.0000  0.0000  0.0000  0.0000  0.0000  0.0000  0.0000  0.0000  0.0000
  o =  0.5927  v =  0.0000  0.0000  0.0000  0.0000  0.0000  0.0000  1.0000  0.0000  0.0000  0.0000      0.0000  0.0000  0.0000  0.0000  0.0000  0.0000  0.0000  0.0000  0.0000  0.0000
  o =  0.5927  v =  0.0000  0.0000  0.0000  0.0000  0.0000  0.0000  0.0000  1.0000  0.0000  0.0000      0.0000  0.0000  0.0000  0.0000  0.0000  0.0000  0.0000  0.0000  0.0000  0.0000
  o =  0.5927  v =  0.0000  0.0000  0.0000  0.0000  0.0000  0.0000  0.0000  0.0000  1.0000  0.0000      0.0000  0.0000  0.0000  0.0000  0.0000  0.0000  0.0000  0.0000  0.0000  0.0000
  o =  0.5927  v =  0.0000  0.0000  0.0000  0.0000  0.0000  0.0000  0.0000  0.0000  0.0000  1.0000      0.0000  0.0000  0.0000  0.0000  0.0000  0.0000  0.0000  0.0000  0.0000  0.0000
  o =  1.1008  v =  1.0000  0.0000  0.0000  0.0000  0.0000  0.0000  0.0000  0.0000  0.0000  0.0000      0.0000  0.0000  0.0000  0.0000  0.0000  0.0000  0.0000  0.0000  0.0000  0.0000
  o =  1.1008  v =  0.0000  1.0000  0.0000  0.0000  0.0000  0.0000  0.0000  0.0000  0.0000  0.0000      0.0000  0.0000  0.0000  0.0000  0.0000  0.0000  0.0000  0.0000  0.0000  0.0000
  o =  1.1008  v =  0.0000  0.0000  1.0000  0.0000  0.0000  0.0000  0.0000  0.0000  0.0000  0.0000      0.0000  0.0000  0.0000  0.0000  0.0000  0.0000  0.0000  0.0000  0.0000  0.0000
  o =  1.1008  v =  0.0000  0.0000  0.0000  1.0000  0.0000  0.0000  0.0000  0.0000  0.0000  0.0000      0.0000  0.0000  0.0000  0.0000  0.0000  0.0000  0.0000  0.0000  0.0000  0.0000
  o =  1.1008  v =  0.0000  0.0000  0.0000  0.0000  1.0000  0.0000  0.0000  0.0000  0.0000  0.0000      0.0000  0.0000  0.0000  0.0000  0.0000  0.0000  0.0000  0.0000  0.0000  0.0000
atom =  10  type =  3  l = 2
 
 onsite density matrix
 
spin component  1
 
  1.1008  0.0000  0.0000  0.0000  0.0000
  0.0000  1.1008  0.0000  0.0000  0.0000
  0.0000  0.0000  1.1008  0.0000  0.0000
  0.0000  0.0000  0.0000  1.1008  0.0000
  0.0000  0.0000  0.0000  0.0000  1.1008
 
spin component  2
 
  0.5927  0.0000  0.0000  0.0000  0.0000
  0.0000  0.5927  0.0000  0.0000  0.0000
  0.0000  0.0000  0.5927  0.0000  0.0000
  0.0000  0.0000  0.0000  0.5927  0.0000
  0.0000  0.0000  0.0000  0.0000  0.5927
 
 occupancies and eigenvectors
 
  o =  0.5927  v =  0.0000  0.0000  0.0000  0.0000  0.0000  1.0000  0.0000  0.0000  0.0000  0.0000      0.0000  0.0000  0.0000  0.0000  0.0000  0.0000  0.0000  0.0000  0.0000  0.0000
  o =  0.5927  v =  0.0000  0.0000  0.0000  0.0000  0.0000  0.0000  1.0000  0.0000  0.0000  0.0000      0.0000  0.0000  0.0000  0.0000  0.0000  0.0000  0.0000  0.0000  0.0000  0.0000
  o =  0.5927  v =  0.0000  0.0000  0.0000  0.0000  0.0000  0.0000  0.0000  1.0000  0.0000  0.0000      0.0000  0.0000  0.0000  0.0000  0.0000  0.0000  0.0000  0.0000  0.0000  0.0000
  o =  0.5927  v =  0.0000  0.0000  0.0000  0.0000  0.0000  0.0000  0.0000  0.0000  1.0000  0.0000      0.0000  0.0000  0.0000  0.0000  0.0000  0.0000  0.0000  0.0000  0.0000  0.0000
  o =  0.5927  v =  0.0000  0.0000  0.0000  0.0000  0.0000  0.0000  0.0000  0.0000  0.0000  1.0000      0.0000  0.0000  0.0000  0.0000  0.0000  0.0000  0.0000  0.0000  0.0000  0.0000
  o =  1.1008  v =  1.0000  0.0000  0.0000  0.0000  0.0000  0.0000  0.0000  0.0000  0.0000  0.0000      0.0000  0.0000  0.0000  0.0000  0.0000  0.0000  0.0000  0.0000  0.0000  0.0000
  o =  1.1008  v =  0.0000  1.0000  0.0000  0.0000  0.0000  0.0000  0.0000  0.0000  0.0000  0.0000      0.0000  0.0000  0.0000  0.0000  0.0000  0.0000  0.0000  0.0000  0.0000  0.0000
  o =  1.1008  v =  0.0000  0.0000  1.0000  0.0000  0.0000  0.0000  0.0000  0.0000  0.0000  0.0000      0.0000  0.0000  0.0000  0.0000  0.0000  0.0000  0.0000  0.0000  0.0000  0.0000
  o =  1.1008  v =  0.0000  0.0000  0.0000  1.0000  0.0000  0.0000  0.0000  0.0000  0.0000  0.0000      0.0000  0.0000  0.0000  0.0000  0.0000  0.0000  0.0000  0.0000  0.0000  0.0000
  o =  1.1008  v =  0.0000  0.0000  0.0000  0.0000  1.0000  0.0000  0.0000  0.0000  0.0000  0.0000      0.0000  0.0000  0.0000  0.0000  0.0000  0.0000  0.0000  0.0000  0.0000  0.0000
atom =  11  type =  4  l = 0
 
 onsite density matrix
 
spin component  1
 
  0.8190
 
spin component  2
 
  0.8190
 
 occupancies and eigenvectors
 
  o =  0.8190  v =  1.0000  0.0000      0.0000  0.0000
  o =  0.8190  v =  0.0000  1.0000      0.0000  0.0000
atom =  12  type =  4  l = 0
 
 onsite density matrix
 
spin component  1
 
  0.8190
 
spin component  2
 
  0.8190
 
 occupancies and eigenvectors
 
  o =  0.8190  v =  1.0000  0.0000      0.0000  0.0000
  o =  0.8190  v =  0.0000  1.0000      0.0000  0.0000
atom =  13  type =  4  l = 0
 
 onsite density matrix
 
spin component  1
 
  0.8190
 
spin component  2
 
  0.8190
 
 occupancies and eigenvectors
 
  o =  0.8190  v =  1.0000  0.0000      0.0000  0.0000
  o =  0.8190  v =  0.0000  1.0000      0.0000  0.0000
atom =  14  type =  4  l = 0
 
 onsite density matrix
 
spin component  1
 
  0.8190
 
spin component  2
 
  0.8190
 
 occupancies and eigenvectors
 
  o =  0.8190  v =  1.0000  0.0000      0.0000  0.0000
  o =  0.8190  v =  0.0000  1.0000      0.0000  0.0000
atom =  15  type =  4  l = 0
 
 onsite density matrix
 
spin component  1
 
  0.8190
 
spin component  2
 
  0.8190
 
 occupancies and eigenvectors
 
  o =  0.8190  v =  1.0000  0.0000      0.0000  0.0000
  o =  0.8190  v =  0.0000  1.0000      0.0000  0.0000
atom =  16  type =  4  l = 0
 
 onsite density matrix
 
spin component  1
 
  0.8190
 
spin component  2
 
  0.8190
 
 occupancies and eigenvectors
 
  o =  0.8190  v =  1.0000  0.0000      0.0000  0.0000
  o =  0.8190  v =  0.0000  1.0000      0.0000  0.0000
atom =  17  type =  4  l = 0
 
 onsite density matrix
 
spin component  1
 
  0.8190
 
spin component  2
 
  0.8190
 
 occupancies and eigenvectors
 
  o =  0.8190  v =  1.0000  0.0000      0.0000  0.0000
  o =  0.8190  v =  0.0000  1.0000      0.0000  0.0000
atom =  18  type =  4  l = 0
 
 onsite density matrix
 
spin component  1
 
  0.8190
 
spin component  2
 
  0.8190
 
 occupancies and eigenvectors
 
  o =  0.8190  v =  1.0000  0.0000      0.0000  0.0000
  o =  0.8190  v =  0.0000  1.0000      0.0000  0.0000
atom =  19  type =  4  l = 0
 
 onsite density matrix
 
spin component  1
 
  0.8190
 
spin component  2
 
  0.8190
 
 occupancies and eigenvectors
 
  o =  0.8190  v =  1.0000  0.0000      0.0000  0.0000
  o =  0.8190  v =  0.0000  1.0000      0.0000  0.0000
atom =  20  type =  4  l = 0
 
 onsite density matrix
 
spin component  1
 
  0.8190
 
spin component  2
 
  0.8190
 
 occupancies and eigenvectors
 
  o =  0.8190  v =  1.0000  0.0000      0.0000  0.0000
  o =  0.8190  v =  0.0000  1.0000      0.0000  0.0000
atom =  21  type =  4  l = 0
 
 onsite density matrix
 
spin component  1
 
  0.8190
 
spin component  2
 
  0.8190
 
 occupancies and eigenvectors
 
  o =  0.8190  v =  1.0000  0.0000      0.0000  0.0000
  o =  0.8190  v =  0.0000  1.0000      0.0000  0.0000
atom =  22  type =  4  l = 0
 
 onsite density matrix
 
spin component  1
 
  0.8190
 
spin component  2
 
  0.8190
 
 occupancies and eigenvectors
 
  o =  0.8190  v =  1.0000  0.0000      0.0000  0.0000
  o =  0.8190  v =  0.0000  1.0000      0.0000  0.0000
atom =  23  type =  4  l = 0
 
 onsite density matrix
 
spin component  1
 
  0.8190
 
spin component  2
 
  0.8190
 
 occupancies and eigenvectors
 
  o =  0.8190  v =  1.0000  0.0000      0.0000  0.0000
  o =  0.8190  v =  0.0000  1.0000      0.0000  0.0000
atom =  24  type =  4  l = 0
 
 onsite density matrix
 
spin component  1
 
  0.8190
 
spin component  2
 
  0.8190
 
 occupancies and eigenvectors
 
  o =  0.8190  v =  1.0000  0.0000      0.0000  0.0000
  o =  0.8190  v =  0.0000  1.0000      0.0000  0.0000
atom =  25  type =  4  l = 0
 
 onsite density matrix
 
spin component  1
 
  0.8190
 
spin component  2
 
  0.8190
 
 occupancies and eigenvectors
 
  o =  0.8190  v =  1.0000  0.0000      0.0000  0.0000
  o =  0.8190  v =  0.0000  1.0000      0.0000  0.0000
     EDDAV:  cpu time    3.5108: real time    3.5272
 BZINTS: Fermi energy: 31.030970;189.000000 electrons
         Band energy:2784.559714;  BLOECHL correction: -0.221013
       DOS:  cpu time    0.0168: real time    0.0182
    --------------------------------------------
      LOOP:  cpu time    3.6245: real time    3.6460

 eigenvalue-minimisations  :  5832
 total energy-change (2. order) : 0.2923634E+04  (-0.6739323E+04)
 number of electron     189.0000000 magnetization      17.0000000
 augmentation part      189.0000000 magnetization      17.0000000

 Free energy of the ion-electron system (eV)
  ---------------------------------------------------
  alpha Z        PSCENC =       821.48935798
  Ewald energy   TEWEN  =    -13079.70485316
  -Hartree energ DENC   =     -3027.47215458
  -exchange      EXHF   =         0.00000000
  -V(xc)+E(xc)   XCENC  =       650.16519097
  PAW double counting   =     12113.24528192   -12220.41125290
  entropy T*S    EENTRO =         0.00000000
  eigenvalues    EBANDS =      2784.55971353
  atomic energy  EATOM  =     14881.76277809
  Solvation  Ediel_sol  =         0.00000000
  ---------------------------------------------------
  free energy    TOTEN  =      2923.63406186 eV

  energy without entropy =     2923.63406186  energy(sigma->0) =     2923.63406186


--------------------------------------------------------------------------------------------------------




--------------------------------------- Iteration      1(   2)  ---------------------------------------


     EDDAV:  cpu time    3.5876: real time    3.6026
 BZINTS: Fermi energy: 16.311440;189.000000 electrons
         Band energy: 837.734779;  BLOECHL correction: -0.056121
       DOS:  cpu time    0.0173: real time    0.0174
    --------------------------------------------
      LOOP:  cpu time    3.6049: real time    3.6199

 eigenvalue-minimisations  :  6056
 total energy-change (2. order) :-0.1946825E+04  (-0.1754305E+04)
 number of electron     189.0000000 magnetization      17.0000000
 augmentation part      189.0000000 magnetization      17.0000000

 Free energy of the ion-electron system (eV)
  ---------------------------------------------------
  alpha Z        PSCENC =       821.48935798
  Ewald energy   TEWEN  =    -13079.70485316
  -Hartree energ DENC   =     -3027.47215458
  -exchange      EXHF   =         0.00000000
  -V(xc)+E(xc)   XCENC  =       650.16519097
  PAW double counting   =     12113.24528192   -12220.41125290
  entropy T*S    EENTRO =         0.00000000
  eigenvalues    EBANDS =       837.73477900
  atomic energy  EATOM  =     14881.76277809
  Solvation  Ediel_sol  =         0.00000000
  ---------------------------------------------------
  free energy    TOTEN  =       976.80912733 eV

  energy without entropy =      976.80912733  energy(sigma->0) =      976.80912733


--------------------------------------------------------------------------------------------------------




--------------------------------------- Iteration      1(   3)  ---------------------------------------


     EDDAV:  cpu time    3.6094: real time    3.6246
 BZINTS: Fermi energy: 12.252674;189.000000 electrons
         Band energy:  48.913194;  BLOECHL correction: -0.012882
       DOS:  cpu time    0.0177: real time    0.0177
    --------------------------------------------
      LOOP:  cpu time    3.6271: real time    3.6423

 eigenvalue-minimisations  :  6040
 total energy-change (2. order) :-0.7888216E+03  (-0.7137116E+03)
 number of electron     189.0000000 magnetization      17.0000000
 augmentation part      189.0000000 magnetization      17.0000000

 Free energy of the ion-electron system (eV)
  ---------------------------------------------------
  alpha Z        PSCENC =       821.48935798
  Ewald energy   TEWEN  =    -13079.70485316
  -Hartree energ DENC   =     -3027.47215458
  -exchange      EXHF   =         0.00000000
  -V(xc)+E(xc)   XCENC  =       650.16519097
  PAW double counting   =     12113.24528192   -12220.41125290
  entropy T*S    EENTRO =         0.00000000
  eigenvalues    EBANDS =        48.91319406
  atomic energy  EATOM  =     14881.76277809
  Solvation  Ediel_sol  =         0.00000000
  ---------------------------------------------------
  free energy    TOTEN  =       187.98754239 eV

  energy without entropy =      187.98754239  energy(sigma->0) =      187.98754239


--------------------------------------------------------------------------------------------------------




--------------------------------------- Iteration      1(   4)  ---------------------------------------


     EDDAV:  cpu time    4.8372: real time    4.8573
 BZINTS: Fermi energy: 11.606214;189.000000 electrons
         Band energy:-280.728328;  BLOECHL correction: -0.001981
       DOS:  cpu time    0.0171: real time    0.0171
    --------------------------------------------
      LOOP:  cpu time    4.8543: real time    4.8745

 eigenvalue-minimisations  :  8758
 total energy-change (2. order) :-0.3296415E+03  (-0.3122877E+03)
 number of electron     189.0000000 magnetization      17.0000000
 augmentation part      189.0000000 magnetization      17.0000000

 Free energy of the ion-electron system (eV)
  ---------------------------------------------------
  alpha Z        PSCENC =       821.48935798
  Ewald energy   TEWEN  =    -13079.70485316
  -Hartree energ DENC   =     -3027.47215458
  -exchange      EXHF   =         0.00000000
  -V(xc)+E(xc)   XCENC  =       650.16519097
  PAW double counting   =     12113.24528192   -12220.41125290
  entropy T*S    EENTRO =         0.00000000
  eigenvalues    EBANDS =      -280.72832776
  atomic energy  EATOM  =     14881.76277809
  Solvation  Ediel_sol  =         0.00000000
  ---------------------------------------------------
  free energy    TOTEN  =      -141.65397943 eV

  energy without entropy =     -141.65397943  energy(sigma->0) =     -141.65397943


--------------------------------------------------------------------------------------------------------




--------------------------------------- Iteration      1(   5)  ---------------------------------------


     EDDAV:  cpu time    5.4152: real time    5.4400
 BZINTS: Fermi energy: 11.096055;189.000000 electrons
         Band energy:-345.665370;  BLOECHL correction: -0.025336
       DOS:  cpu time    0.0168: real time    0.0168
    CHARGE:  cpu time    0.1704: real time    0.1712
    MIXING:  cpu time    0.0035: real time    0.0039
    --------------------------------------------
      LOOP:  cpu time    5.6059: real time    5.6320

 eigenvalue-minimisations  :  9922
 total energy-change (2. order) :-0.6493704E+02  (-0.6292232E+02)
 number of electron     188.9999993 magnetization      15.5951943
 augmentation part       24.9653936 magnetization      11.8477011

 Broyden mixing:
  rms(total) = 0.70768E+01    rms(broyden)= 0.70764E+01
  rms(prec ) = 0.78862E+01
  weight for this iteration     100.00

 Free energy of the ion-electron system (eV)
  ---------------------------------------------------
  alpha Z        PSCENC =       821.48935798
  Ewald energy   TEWEN  =    -13079.70485316
  -Hartree energ DENC   =     -3027.47215458
  -exchange      EXHF   =         0.00000000
  -V(xc)+E(xc)   XCENC  =       650.16519097
  PAW double counting   =     12113.24528192   -12220.41125290
  entropy T*S    EENTRO =         0.00000000
  eigenvalues    EBANDS =      -345.66537012
  atomic energy  EATOM  =     14881.76277809
  Solvation  Ediel_sol  =         0.00000000
  ---------------------------------------------------
  free energy    TOTEN  =      -206.59102180 eV

  energy without entropy =     -206.59102180  energy(sigma->0) =     -206.59102180


--------------------------------------------------------------------------------------------------------




--------------------------------------- Iteration      1(   6)  ---------------------------------------


    POTLOK:  cpu time    0.0787: real time    0.0801
    SETDIJ:  cpu time    0.0148: real time    0.0149
atom =   1  type =  1  l = 0
 
 onsite density matrix
 
spin component  1
 
  1.0564
 
spin component  2
 
  1.0567
 
 occupancies and eigenvectors
 
  o =  1.0564  v =  1.0000  0.0000      0.0000  0.0000
  o =  1.0567  v =  0.0000  1.0000      0.0000  0.0000
atom =   2  type =  1  l = 0
 
 onsite density matrix
 
spin component  1
 
  1.0564
 
spin component  2
 
  1.0567
 
 occupancies and eigenvectors
 
  o =  1.0564  v =  1.0000  0.0000      0.0000  0.0000
  o =  1.0567  v =  0.0000  1.0000      0.0000  0.0000
atom =   3  type =  1  l = 0
 
 onsite density matrix
 
spin component  1
 
  1.0569
 
spin component  2
 
  1.0571
 
 occupancies and eigenvectors
 
  o =  1.0569  v =  1.0000  0.0000      0.0000  0.0000
  o =  1.0571  v =  0.0000  1.0000      0.0000  0.0000
atom =   4  type =  1  l = 0
 
 onsite density matrix
 
spin component  1
 
  1.0567
 
spin component  2
 
  1.0562
 
 occupancies and eigenvectors
 
  o =  1.0562  v =  0.0000  1.0000      0.0000  0.0000
  o =  1.0567  v =  1.0000  0.0000      0.0000  0.0000
atom =   5  type =  1  l = 0
 
 onsite density matrix
 
spin component  1
 
  1.0569
 
spin component  2
 
  1.0571
 
 occupancies and eigenvectors
 
  o =  1.0569  v =  1.0000  0.0000      0.0000  0.0000
  o =  1.0571  v =  0.0000  1.0000      0.0000  0.0000
atom =   6  type =  2  l = 2
 
 onsite density matrix
 
spin component  1
 
  0.9620 -0.0022  0.0031  0.0022 -0.0000
 -0.0022  0.9620  0.0016 -0.0022 -0.0027
  0.0031  0.0016  0.3209 -0.0016 -0.0000
  0.0022 -0.0022 -0.0016  0.9620 -0.0027
 -0.0000 -0.0027 -0.0000 -0.0027  0.3209
 
spin component  2
 
  0.0279  0.0016 -0.0022 -0.0016  0.0000
  0.0016  0.0279 -0.0011  0.0016  0.0019
 -0.0022 -0.0011  0.4704  0.0011  0.0000
 -0.0016  0.0016  0.0011  0.0279  0.0019
  0.0000  0.0019  0.0000  0.0019  0.4704
 
 occupancies and eigenvectors
 
  o =  0.0247  v =  0.0000  0.0000  0.0000  0.0000  0.0000  0.5774 -0.5774  0.0000  0.5774 -0.0000      0.0000  0.0000  0.0000  0.0000  0.0000  0.0000  0.0000  0.0000  0.0000  0.0000
  o =  0.0295  v =  0.0000  0.0000  0.0000  0.0000  0.0000  0.7071  0.0000  0.0052 -0.7071  0.0030      0.0000  0.0000  0.0000  0.0000  0.0000  0.0000  0.0000  0.0000  0.0000  0.0000
  o =  0.0295  v =  0.0000  0.0000  0.0000  0.0000  0.0000  0.4082  0.8165  0.0030  0.4082 -0.0052      0.0000  0.0000  0.0000  0.0000  0.0000  0.0000  0.0000  0.0000  0.0000  0.0000
  o =  0.3209  v =  0.0042 -0.0000 -0.8660 -0.0042 -0.5000  0.0000  0.0000  0.0000  0.0000  0.0000      0.0000  0.0000  0.0000  0.0000  0.0000  0.0000  0.0000  0.0000  0.0000  0.0000
  o =  0.3209  v =  0.0024  0.0049 -0.5000  0.0024  0.8660  0.0000  0.0000  0.0000  0.0000  0.0000      0.0000  0.0000  0.0000  0.0000  0.0000  0.0000  0.0000  0.0000  0.0000  0.0000
  o =  0.4704  v =  0.0000  0.0000  0.0000  0.0000  0.0000 -0.0025 -0.0049  0.5000 -0.0025 -0.8660      0.0000  0.0000  0.0000  0.0000  0.0000  0.0000  0.0000  0.0000  0.0000  0.0000
  o =  0.4704  v =  0.0000  0.0000  0.0000  0.0000  0.0000  0.0043  0.0000 -0.8660 -0.0043 -0.5000      0.0000  0.0000  0.0000  0.0000  0.0000  0.0000  0.0000  0.0000  0.0000  0.0000
  o =  0.9599  v =  0.4082  0.8165  0.0030  0.4082 -0.0051  0.0000  0.0000  0.0000  0.0000  0.0000      0.0000  0.0000  0.0000  0.0000  0.0000  0.0000  0.0000  0.0000  0.0000  0.0000
  o =  0.9599  v =  0.7071 -0.0000  0.0051 -0.7071  0.0030  0.0000  0.0000  0.0000  0.0000  0.0000      0.0000  0.0000  0.0000  0.0000  0.0000  0.0000  0.0000  0.0000  0.0000  0.0000
  o =  0.9663  v = -0.5774  0.5774 -0.0000 -0.5774  0.0000  0.0000  0.0000  0.0000  0.0000  0.0000      0.0000  0.0000  0.0000  0.0000  0.0000  0.0000  0.0000  0.0000  0.0000  0.0000
atom =   7  type =  2  l = 2
 
 onsite density matrix
 
spin component  1
 
  0.9620 -0.0022  0.0031  0.0022 -0.0000
 -0.0022  0.9620  0.0016 -0.0022 -0.0027
  0.0031  0.0016  0.3209 -0.0016 -0.0000
  0.0022 -0.0022 -0.0016  0.9620 -0.0027
 -0.0000 -0.0027 -0.0000 -0.0027  0.3209
 
spin component  2
 
  0.0279  0.0016 -0.0022 -0.0016  0.0000
  0.0016  0.0279 -0.0011  0.0016  0.0019
 -0.0022 -0.0011  0.4704  0.0011  0.0000
 -0.0016  0.0016  0.0011  0.0279  0.0019
  0.0000  0.0019  0.0000  0.0019  0.4704
 
 occupancies and eigenvectors
 
  o =  0.0247  v =  0.0000  0.0000  0.0000  0.0000  0.0000  0.5774 -0.5774  0.0000  0.5774 -0.0000      0.0000  0.0000  0.0000  0.0000  0.0000  0.0000  0.0000  0.0000  0.0000  0.0000
  o =  0.0295  v =  0.0000  0.0000  0.0000  0.0000  0.0000  0.7071  0.0000  0.0052 -0.7071  0.0030      0.0000  0.0000  0.0000  0.0000  0.0000  0.0000  0.0000  0.0000  0.0000  0.0000
  o =  0.0295  v =  0.0000  0.0000  0.0000  0.0000  0.0000  0.4082  0.8165  0.0030  0.4082 -0.0052      0.0000  0.0000  0.0000  0.0000  0.0000  0.0000  0.0000  0.0000  0.0000  0.0000
  o =  0.3209  v =  0.0042  0.0000 -0.8660 -0.0042 -0.5000  0.0000  0.0000  0.0000  0.0000  0.0000      0.0000  0.0000  0.0000  0.0000  0.0000  0.0000  0.0000  0.0000  0.0000  0.0000
  o =  0.3209  v =  0.0024  0.0049 -0.5000  0.0024  0.8660  0.0000  0.0000  0.0000  0.0000  0.0000      0.0000  0.0000  0.0000  0.0000  0.0000  0.0000  0.0000  0.0000  0.0000  0.0000
  o =  0.4704  v =  0.0000  0.0000  0.0000  0.0000  0.0000 -0.0025 -0.0049  0.5000 -0.0025 -0.8660      0.0000  0.0000  0.0000  0.0000  0.0000  0.0000  0.0000  0.0000  0.0000  0.0000
  o =  0.4704  v =  0.0000  0.0000  0.0000  0.0000  0.0000  0.0043 -0.0000 -0.8660 -0.0043 -0.5000      0.0000  0.0000  0.0000  0.0000  0.0000  0.0000  0.0000  0.0000  0.0000  0.0000
  o =  0.9599  v =  0.4082  0.8165  0.0030  0.4082 -0.0051  0.0000  0.0000  0.0000  0.0000  0.0000      0.0000  0.0000  0.0000  0.0000  0.0000  0.0000  0.0000  0.0000  0.0000  0.0000
  o =  0.9599  v =  0.7071  0.0000  0.0051 -0.7071  0.0030  0.0000  0.0000  0.0000  0.0000  0.0000      0.0000  0.0000  0.0000  0.0000  0.0000  0.0000  0.0000  0.0000  0.0000  0.0000
  o =  0.9663  v = -0.5774  0.5774 -0.0000 -0.5774  0.0000  0.0000  0.0000  0.0000  0.0000  0.0000      0.0000  0.0000  0.0000  0.0000  0.0000  0.0000  0.0000  0.0000  0.0000  0.0000
atom =   8  type =  3  l = 2
 
 onsite density matrix
 
spin component  1
 
  0.9382  0.0016  0.0011 -0.0016  0.0000
  0.0016  0.9382  0.0005  0.0016 -0.0009
  0.0011  0.0005  1.3268 -0.0005 -0.0000
 -0.0016  0.0016 -0.0005  0.9382 -0.0009
  0.0000 -0.0009 -0.0000 -0.0009  1.3268
 
spin component  2
 
  0.7404 -0.0017 -0.0010  0.0017 -0.0000
 -0.0017  0.7404 -0.0005 -0.0017  0.0008
 -0.0010 -0.0005  0.1938  0.0005  0.0000
  0.0017 -0.0017  0.0005  0.7404  0.0008
 -0.0000  0.0008  0.0000  0.0008  0.1938
 
 occupancies and eigenvectors
 
  o =  0.1938  v =  0.0000  0.0000  0.0000  0.0000  0.0000 -0.0009 -0.0018 -0.5000 -0.0009  0.8660      0.0000  0.0000  0.0000  0.0000  0.0000  0.0000  0.0000  0.0000  0.0000  0.0000
  o =  0.1938  v =  0.0000  0.0000  0.0000  0.0000  0.0000 -0.0015  0.0000 -0.8660  0.0015 -0.5000      0.0000  0.0000  0.0000  0.0000  0.0000  0.0000  0.0000  0.0000  0.0000  0.0000
  o =  0.7387  v =  0.0000  0.0000  0.0000  0.0000  0.0000 -0.4082 -0.8165  0.0011 -0.4083 -0.0019      0.0000  0.0000  0.0000  0.0000  0.0000  0.0000  0.0000  0.0000  0.0000  0.0000
  o =  0.7387  v =  0.0000  0.0000  0.0000  0.0000  0.0000 -0.7071 -0.0000  0.0019  0.7071  0.0011      0.0000  0.0000  0.0000  0.0000  0.0000  0.0000  0.0000  0.0000  0.0000  0.0000
  o =  0.7438  v =  0.0000  0.0000  0.0000  0.0000  0.0000 -0.5774  0.5774 -0.0000 -0.5774  0.0000      0.0000  0.0000  0.0000  0.0000  0.0000  0.0000  0.0000  0.0000  0.0000  0.0000
  o =  0.9349  v =  0.5774 -0.5774 -0.0000  0.5774  0.0000  0.0000  0.0000  0.0000  0.0000  0.0000      0.0000  0.0000  0.0000  0.0000  0.0000  0.0000  0.0000  0.0000  0.0000  0.0000
  o =  0.9398  v =  0.4082  0.8165 -0.0017  0.4082  0.0029  0.0000  0.0000  0.0000  0.0000  0.0000      0.0000  0.0000  0.0000  0.0000  0.0000  0.0000  0.0000  0.0000  0.0000  0.0000
  o =  0.9398  v = -0.7071  0.0000  0.0029  0.7071  0.0017  0.0000  0.0000  0.0000  0.0000  0.0000      0.0000  0.0000  0.0000  0.0000  0.0000  0.0000  0.0000  0.0000  0.0000  0.0000
  o =  1.3268  v =  0.0024 -0.0000  0.8660 -0.0024  0.5000  0.0000  0.0000  0.0000  0.0000  0.0000      0.0000  0.0000  0.0000  0.0000  0.0000  0.0000  0.0000  0.0000  0.0000  0.0000
  o =  1.3268  v = -0.0014 -0.0027 -0.5000 -0.0014  0.8660  0.0000  0.0000  0.0000  0.0000  0.0000      0.0000  0.0000  0.0000  0.0000  0.0000  0.0000  0.0000  0.0000  0.0000  0.0000
atom =   9  type =  3  l = 2
 
 onsite density matrix
 
spin component  1
 
  0.9534  0.0058  0.0011 -0.0058  0.0000
  0.0058  0.9534  0.0006  0.0058 -0.0010
  0.0011  0.0006  1.3150 -0.0006 -0.0000
 -0.0058  0.0058 -0.0006  0.9534 -0.0010
  0.0000 -0.0010 -0.0000 -0.0010  1.3150
 
spin component  2
 
  0.7130 -0.0095 -0.0019  0.0095 -0.0000
 -0.0095  0.7130 -0.0010 -0.0095  0.0017
[...]
 -0.000  -0.000   0.000   0.000   0.000   0.000   0.000  -0.000   0.000  -0.000   0.000   0.000  -0.000  -0.000  -0.000  -0.000
  0.000  -0.000  -0.000  -0.000   0.000   0.000  -0.000   0.000  -0.000   0.000   0.000   0.001   0.000   0.000  -0.000  -0.000
  0.000  -0.000  -0.000  -0.000   0.000  -0.000   0.000   0.000   0.001   0.000  -0.000  -0.000  -0.000  -0.000  -0.000   0.000
 -0.000   0.000   0.000   0.000  -0.000   0.000   0.000   0.000   0.000   0.001  -0.000   0.000   0.000  -0.000  -0.000   0.000
  0.000   0.002  -0.000  -0.000   0.000  -0.000   0.001   0.000   0.003  -0.003  -0.005   0.003   0.000  -0.000   0.001   0.002
 -0.000  -0.002   0.000   0.000  -0.000   0.000   0.000   0.001  -0.003   0.003  -0.002  -0.003   0.004   0.001  -0.000   0.001
  0.000   0.000  -0.000   0.000   0.000   0.000  -0.000  -0.000  -0.005  -0.002   0.020   0.002  -0.000   0.002   0.001  -0.008
  0.000   0.002  -0.000  -0.000   0.000   0.001  -0.000   0.000   0.003  -0.003   0.002   0.003   0.004  -0.001   0.001  -0.001
 -0.000  -0.000  -0.000   0.000  -0.000   0.000  -0.000   0.000   0.000   0.004  -0.000   0.004   0.020  -0.000  -0.002   0.000
 -0.000  -0.001   0.000  -0.000  -0.000   0.000  -0.000  -0.000  -0.000   0.001   0.002  -0.001  -0.000  -0.000  -0.000  -0.001
  0.000   0.001  -0.000  -0.000  -0.000  -0.000  -0.000  -0.000   0.001  -0.000   0.001   0.001  -0.002  -0.000  -0.000  -0.000
 -0.000  -0.000   0.000  -0.000  -0.000  -0.000   0.000   0.000   0.002   0.001  -0.008  -0.001   0.000  -0.001  -0.000   0.003
 -0.000  -0.001  -0.000   0.000  -0.000  -0.000   0.000  -0.000  -0.001   0.001  -0.001  -0.000  -0.002   0.000  -0.000   0.000
  0.000   0.000   0.000   0.000   0.000  -0.000   0.000  -0.000  -0.000  -0.002   0.000  -0.002  -0.008   0.000   0.001  -0.000
 -0.000  -0.001  -0.000   0.000  -0.000   0.000  -0.000  -0.000   0.001  -0.001  -0.000  -0.000   0.002  -0.000   0.001   0.000
  0.000  -0.004   0.000   0.000  -0.000   0.000   0.000  -0.000  -0.003   0.003  -0.000  -0.003   0.000   0.001  -0.001   0.000
 -0.000  -0.001  -0.000   0.000  -0.000   0.000   0.000   0.000   0.001  -0.001   0.002  -0.000   0.000  -0.000   0.000  -0.001
  0.000   0.001  -0.000   0.000   0.000   0.000  -0.000  -0.000   0.001   0.002   0.002  -0.002  -0.000  -0.000  -0.001  -0.001
  0.000   0.001  -0.000  -0.000  -0.000   0.000  -0.000   0.000  -0.001  -0.000  -0.002  -0.001   0.000   0.000   0.000   0.001
 -0.000   0.000  -0.000  -0.000  -0.000  -0.000   0.000  -0.000   0.000  -0.000  -0.000  -0.000   0.002  -0.000   0.000   0.000
 -0.000  -0.001   0.000   0.000   0.000   0.000  -0.000  -0.000   0.001   0.000  -0.000   0.001  -0.002  -0.000  -0.000   0.000
  0.000   0.001   0.000  -0.000  -0.000  -0.000   0.000   0.000  -0.002   0.002   0.001   0.000  -0.004   0.001  -0.001  -0.000
 -0.000   0.005  -0.000  -0.000   0.000  -0.000  -0.000   0.000   0.004  -0.004   0.000   0.004  -0.000  -0.001   0.001  -0.000
  0.000   0.001   0.000   0.000   0.000  -0.000  -0.000  -0.000  -0.002   0.001  -0.004   0.000  -0.000   0.001  -0.000   0.001
 -0.000  -0.001   0.000  -0.000  -0.000  -0.000   0.001   0.000  -0.000  -0.003  -0.004   0.003   0.000   0.000   0.001   0.001
 -0.000  -0.001   0.000  -0.000   0.000  -0.000   0.000  -0.000   0.002   0.000   0.004   0.001  -0.000  -0.001  -0.000  -0.001
  0.000  -0.000  -0.000   0.000  -0.000   0.000  -0.000   0.000  -0.000   0.000   0.000   0.000  -0.004   0.000  -0.000  -0.000
  0.000   0.001   0.000  -0.000  -0.000  -0.000   0.000   0.000  -0.002  -0.000   0.001  -0.002   0.004   0.001   0.000  -0.000


------------------------ aborting loop because EDIFF is reached ----------------------------------------


 


 total charge     
 
# of ion       s       p       d       f       tot
--------------------------------------------------
    1        2.001   5.699   0.503   0.196   8.399
    2        2.001   5.699   0.503   0.196   8.399
    3        2.000   5.698   0.496   0.191   8.385
    4        1.999   5.702   0.493   0.194   8.388
    5        2.001   5.698   0.496   0.191   8.386
    6        0.350   0.550   4.851   0.000   5.751
    7        0.350   0.550   4.851   0.000   5.751
    8        0.428   0.651   8.330   0.000   9.408
    9        0.402   0.576   8.320   0.000   9.298
   10        0.402   0.576   8.320   0.000   9.298
   11        1.561   3.474   0.000   0.000   5.036
   12        1.560   3.495   0.000   0.000   5.055
   13        1.563   3.471   0.000   0.000   5.034
   14        1.563   3.471   0.000   0.000   5.034
   15        1.560   3.495   0.000   0.000   5.055
   16        1.562   3.447   0.000   0.000   5.009
   17        1.560   3.395   0.000   0.000   4.955
   18        1.563   3.426   0.000   0.000   4.989
   19        1.563   3.426   0.000   0.000   4.989
   20        1.560   3.395   0.000   0.000   4.955
   21        1.563   3.456   0.000   0.000   5.019
   22        1.560   3.461   0.000   0.000   5.021
   23        1.562   3.467   0.000   0.000   5.029
   24        1.560   3.461   0.000   0.000   5.021
   25        1.563   3.456   0.000   0.000   5.019
--------------------------------------------------
tot         35.357  83.195  37.163   0.967 156.681

 


 magnetization (x)
 
# of ion       s       p       d       f       tot
--------------------------------------------------
    1        0.000   0.001   0.008   0.004   0.013
    2        0.000   0.001   0.008   0.004   0.013
    3       -0.000   0.000   0.003   0.002   0.005
    4        0.001   0.001   0.012   0.005   0.019
    5       -0.000   0.000   0.003   0.002   0.005
    6        0.022   0.023   3.244   0.000   3.289
    7        0.022   0.023   3.244   0.000   3.289
    8        0.018   0.022   1.436   0.000   1.475
    9        0.014  -0.000   1.612   0.000   1.626
   10        0.014  -0.000   1.612   0.000   1.626
   11        0.002  -0.015   0.000   0.000  -0.013
   12        0.007  -0.014   0.000   0.000  -0.006
   13        0.005  -0.040   0.000   0.000  -0.036
   14        0.005  -0.040   0.000   0.000  -0.036
   15        0.007  -0.014   0.000   0.000  -0.007
   16        0.002  -0.017   0.000   0.000  -0.015
   17        0.006  -0.065   0.000   0.000  -0.058
   18        0.004  -0.049   0.000   0.000  -0.045
   19        0.004  -0.049   0.000   0.000  -0.045
   20        0.006  -0.065   0.000   0.000  -0.058
   21        0.005  -0.043   0.000   0.000  -0.038
   22        0.007  -0.030   0.000   0.000  -0.023
   23        0.002  -0.013   0.000   0.000  -0.011
   24        0.007  -0.030   0.000   0.000  -0.023
   25        0.005  -0.043   0.000   0.000  -0.038
--------------------------------------------------
tot          0.164  -0.454  11.182   0.017  10.908

 
    CHARGE:  cpu time    0.1828: real time    0.1833
    FORLOC:  cpu time    0.0096: real time    0.0096
    FORNL :  cpu time    1.1530: real time    1.1578
    STRESS:  cpu time    3.4919: real time    3.5071
    FORCOR:  cpu time    0.1097: real time    0.1107
    FORHAR:  cpu time    0.0174: real time    0.0175
    MIXING:  cpu time    0.0049: real time    0.0049
    OFIELD:  cpu time    0.0001: real time    0.0001

  FORCE on cell =-STRESS in cart. coord.  units (eV):
  Direction    XX          YY          ZZ          XY          YZ          ZX
  --------------------------------------------------------------------------------------
  Alpha Z   821.48936   821.48936   821.48936
  Ewald   -4359.91318 -4359.91318 -4359.91318    41.25236   -41.25236    41.25236
  Hartree  1024.17771  1024.17769  1024.17769    43.24527   -43.24528    43.24527
  E(xc)    -882.08628  -882.08629  -882.08629    -0.03117     0.03119    -0.03117
  Local    -649.83456  -649.83471  -649.83471   -84.16174    84.16249   -84.16174
  n-local   353.34168   352.76015   353.74226     1.47247    -0.67778    -0.68324
  augment   480.28254   480.28237   480.28237     0.00824    -0.00892     0.00824
  Kinetic  3211.90249  3218.63472  3207.06981     2.62268     0.04520    -4.78678
  Fock        0.00000     0.00000     0.00000     0.00000     0.00000     0.00000
  -------------------------------------------------------------------------------------
  Total      -0.06761    -0.06761    -0.06761     0.06793    -0.06793     0.06793
  in kB      -0.37217    -0.37217    -0.37217     0.37391    -0.37391     0.37391
  external pressure =       -0.37 kB  Pullay stress =        0.00 kB


 VOLUME and BASIS-vectors are now :
 -----------------------------------------------------------------------------
  energy-cutoff  :      520.00
  volume of cell :      291.05
      direct lattice vectors                 reciprocal lattice vectors
     3.869447353  0.000000000  3.869447353     0.103292502 -0.103292502  0.155142337
     3.869447353  3.869447353  0.000000000     0.103292502  0.155142337 -0.103292502
    -3.900073998  7.769521342  7.769521342    -0.051442667  0.051442667  0.051442667

  length of vectors
     5.472224926  5.472224926 11.659395394     0.213091122  0.213091122  0.089101312


 FORCES acting on ions
    electron-ion (+dipol)            ewald-force                    non-local-force                 convergence-correction
 -----------------------------------------------------------------------------------------------
   -.104E+03 0.104E+03 0.104E+03   0.103E+03 -.103E+03 -.103E+03   0.910E+00 -.910E+00 -.910E+00   0.242E-01 -.242E-01 -.242E-01
   0.104E+03 -.104E+03 -.104E+03   -.103E+03 0.103E+03 0.103E+03   -.910E+00 0.910E+00 0.910E+00   -.242E-01 0.242E-01 0.242E-01
   -.614E+02 0.614E+02 0.614E+02   0.608E+02 -.608E+02 -.608E+02   0.627E+00 -.627E+00 -.627E+00   0.983E-02 -.983E-02 -.983E-02
   -.679E-05 0.540E-05 0.540E-05   0.136E-10 -.172E-10 -.170E-10   0.108E-18 -.108E-18 0.325E-18   -.175E-05 -.253E-05 -.253E-05
   0.614E+02 -.614E+02 -.614E+02   -.608E+02 0.608E+02 0.608E+02   -.627E+00 0.627E+00 0.627E+00   -.983E-02 0.983E-02 0.983E-02
   -.338E+02 0.338E+02 0.338E+02   0.334E+02 -.334E+02 -.334E+02   0.399E+00 -.399E+00 -.399E+00   0.117E-01 -.117E-01 -.117E-01
   0.338E+02 -.338E+02 -.338E+02   -.334E+02 0.334E+02 0.334E+02   -.399E+00 0.399E+00 0.399E+00   -.117E-01 0.117E-01 0.117E-01
   0.545E-04 0.290E-04 0.290E-04   -.298E-10 -.264E-10 -.262E-10   -.847E-20 -.339E-19 0.102E-19   -.127E-05 0.120E-05 0.120E-05
   -.653E+02 0.653E+02 0.653E+02   0.641E+02 -.641E+02 -.641E+02   0.114E+01 -.114E+01 -.114E+01   0.158E-01 -.158E-01 -.158E-01
   0.653E+02 -.653E+02 -.653E+02   -.641E+02 0.641E+02 0.641E+02   -.114E+01 0.114E+01 0.114E+01   -.158E-01 0.158E-01 0.158E-01
   -.154E-04 -.163E-04 -.654E-05   0.120E-10 0.192E-11 -.154E-10   0.339E-19 0.407E-19 -.407E-19   0.713E-06 -.721E-06 -.747E-06
   -.187E+02 0.187E+02 0.315E+02   0.183E+02 -.183E+02 -.321E+02   0.419E+00 -.419E+00 0.649E+00   0.592E-02 -.592E-02 -.951E-02
   0.291E+02 -.291E+02 -.675E+02   -.286E+02 0.286E+02 0.622E+02   -.507E+00 0.507E+00 0.534E+01   -.119E-01 0.119E-01 0.450E-02
   -.291E+02 0.291E+02 0.675E+02   0.286E+02 -.286E+02 -.622E+02   0.507E+00 -.507E+00 -.534E+01   0.119E-01 -.119E-01 -.450E-02
   0.187E+02 -.187E+02 -.315E+02   -.183E+02 0.183E+02 0.321E+02   -.419E+00 0.419E+00 -.649E+00   -.593E-02 0.593E-02 0.951E-02
   -.154E-04 -.654E-05 -.163E-04   0.120E-10 -.174E-10 -.252E-12   0.108E-18 -.271E-19 0.678E-19   0.713E-06 -.747E-06 -.721E-06
   -.187E+02 0.315E+02 0.187E+02   0.183E+02 -.321E+02 -.183E+02   0.419E+00 0.649E+00 -.419E+00   0.592E-02 -.951E-02 -.592E-02
   0.291E+02 -.675E+02 -.291E+02   -.286E+02 0.622E+02 0.286E+02   -.507E+00 0.534E+01 0.507E+00   -.119E-01 0.450E-02 0.119E-01
   -.291E+02 0.675E+02 0.291E+02   0.286E+02 -.622E+02 -.286E+02   0.507E+00 -.534E+01 -.507E+00   0.119E-01 -.450E-02 -.119E-01
   0.187E+02 -.315E+02 -.187E+02   -.183E+02 0.321E+02 0.183E+02   -.419E+00 -.649E+00 0.419E+00   -.593E-02 0.951E-02 0.593E-02
   -.675E+02 0.291E+02 0.291E+02   0.622E+02 -.286E+02 -.286E+02   0.534E+01 -.507E+00 -.507E+00   0.450E-02 -.119E-01 -.119E-01
   0.315E+02 -.187E+02 -.187E+02   -.321E+02 0.183E+02 0.183E+02   0.649E+00 0.419E+00 0.419E+00   -.951E-02 0.593E-02 0.593E-02
   -.215E-04 -.181E-04 -.181E-04   -.155E-10 -.166E-11 -.161E-11   0.136E-19 0.949E-19 0.407E-19   0.744E-06 -.720E-06 -.720E-06
   -.315E+02 0.187E+02 0.187E+02   0.321E+02 -.183E+02 -.183E+02   -.649E+00 -.419E+00 -.419E+00   0.951E-02 -.592E-02 -.592E-02
   0.675E+02 -.291E+02 -.291E+02   -.622E+02 0.286E+02 0.286E+02   -.534E+01 0.507E+00 0.507E+00   -.450E-02 0.119E-01 0.119E-01
 -----------------------------------------------------------------------------------------------
   -.797E-04 -.379E-04 -.379E-04   -.142E-13 -.462E-13 0.000E+00   0.888E-15 -.133E-14 -.222E-14   -.601E-05 -.827E-06 -.827E-06
 
 
 POSITION                                       TOTAL-FORCE (eV/Angst)
 -----------------------------------------------------------------------------------
      3.74961      7.85873      7.85873         0.030400     -0.030400     -0.030400
      3.96478      3.77411      3.77411        -0.030400      0.030400      0.030400
     -0.09316      7.83205      7.83205        -0.010701      0.010701      0.010701
     -0.01225      3.88170      3.88170         0.000000      0.000000      0.000000
     -3.83142      7.70087      7.70087         0.010701     -0.010701     -0.010701
      1.91753      5.82136      5.82136         0.001028     -0.001028     -0.001028
      5.79686      5.81148      5.81148        -0.001028      0.001028      0.001028
      1.90716      9.70118      9.70118         0.000000      0.000000      0.000000
     -1.94302      5.81246      5.81246        -0.004592      0.004592      0.004592
      1.91852      1.95093      1.95093         0.004592     -0.004592     -0.004592
      1.92247      5.81642      3.88170         0.000000      0.000000      0.000000
      1.91476      9.69359      7.76410        -0.006947      0.006947      0.005985
      1.91205      1.95740      3.92613        -0.014875      0.014875      0.003151
      1.93290      5.80599      7.70672         0.014875     -0.014875     -0.003151
      5.79964      1.93926      3.86875         0.006947     -0.006947     -0.005985
      1.92247      3.88170      5.81642         0.000000      0.000000      0.000000
      1.91476      7.76410      9.69359        -0.006947      0.005985      0.006947
      1.91205      3.92613      1.95740        -0.014875      0.003151      0.014875
      1.93290      7.70672      5.80599         0.014875     -0.003151     -0.014875
      5.79964      3.86875      1.93926         0.006947     -0.005985     -0.006947
      0.03218      5.80599      5.80599         0.003151     -0.014875     -0.014875
      3.87015      1.93926      1.93926         0.005985     -0.006947     -0.006947
      3.85720      5.81642      5.81642         0.000000      0.000000      0.000000
      3.84425      9.69359      9.69359        -0.005985      0.006947      0.006947
     -0.05668      1.95740      1.95740        -0.003151      0.014875      0.014875
 -----------------------------------------------------------------------------------
    total drift:                               -0.000086     -0.000039     -0.000039


--------------------------------------------------------------------------------------------------------



  FREE ENERGIE OF THE ION-ELECTRON SYSTEM (eV)
  ---------------------------------------------------
  free  energy   TOTEN  =      -180.41029472 eV

  energy  without entropy=     -180.41029472  energy(sigma->0) =     -180.41029472
 


--------------------------------------------------------------------------------------------------------


    POTLOK:  cpu time    0.0919: real time    0.0921


--------------------------------------------------------------------------------------------------------


     LOOP+:  cpu time   88.7060: real time   89.1115
    4ORBIT:  cpu time    0.0000: real time    0.0000
 


 total charge     
 
# of ion       s       p       d       f       tot
--------------------------------------------------
    1        2.001   5.699   0.503   0.196   8.399
    2        2.001   5.699   0.503   0.196   8.399
    3        2.000   5.698   0.496   0.191   8.385
    4        1.999   5.702   0.493   0.194   8.388
    5        2.001   5.698   0.496   0.191   8.386
    6        0.350   0.550   4.851   0.000   5.751
    7        0.350   0.550   4.851   0.000   5.751
    8        0.428   0.651   8.330   0.000   9.408
    9        0.402   0.576   8.320   0.000   9.298
   10        0.402   0.576   8.320   0.000   9.298
   11        1.561   3.474   0.000   0.000   5.036
   12        1.560   3.495   0.000   0.000   5.055
   13        1.563   3.471   0.000   0.000   5.034
   14        1.563   3.471   0.000   0.000   5.034
   15        1.560   3.495   0.000   0.000   5.055
   16        1.562   3.447   0.000   0.000   5.009
   17        1.560   3.395   0.000   0.000   4.955
   18        1.563   3.426   0.000   0.000   4.989
   19        1.563   3.426   0.000   0.000   4.989
   20        1.560   3.395   0.000   0.000   4.955
   21        1.563   3.456   0.000   0.000   5.019
   22        1.560   3.461   0.000   0.000   5.021
   23        1.562   3.467   0.000   0.000   5.029
   24        1.560   3.461   0.000   0.000   5.021
   25        1.563   3.456   0.000   0.000   5.019
--------------------------------------------------
tot         35.357  83.195  37.163   0.967 156.681

 


 magnetization (x)
 
# of ion       s       p       d       f       tot
--------------------------------------------------
    1        0.000   0.001   0.008   0.004   0.013
    2        0.000   0.001   0.008   0.004   0.013
    3       -0.000   0.000   0.003   0.002   0.005
    4        0.001   0.001   0.012   0.005   0.019
    5       -0.000   0.000   0.003   0.002   0.005
    6        0.022   0.023   3.244   0.000   3.289
    7        0.022   0.023   3.244   0.000   3.289
    8        0.018   0.022   1.436   0.000   1.475
    9        0.014  -0.000   1.612   0.000   1.626
   10        0.014  -0.000   1.612   0.000   1.626
   11        0.002  -0.015   0.000   0.000  -0.013
   12        0.007  -0.014   0.000   0.000  -0.006
   13        0.005  -0.040   0.000   0.000  -0.036
   14        0.005  -0.040   0.000   0.000  -0.036
   15        0.007  -0.014   0.000   0.000  -0.007
   16        0.002  -0.017   0.000   0.000  -0.015
   17        0.006  -0.065   0.000   0.000  -0.058
   18        0.004  -0.049   0.000   0.000  -0.045
   19        0.004  -0.049   0.000   0.000  -0.045
   20        0.006  -0.065   0.000   0.000  -0.058
   21        0.005  -0.043   0.000   0.000  -0.038
   22        0.007  -0.030   0.000   0.000  -0.023
   23        0.002  -0.013   0.000   0.000  -0.011
   24        0.007  -0.030   0.000   0.000  -0.023
   25        0.005  -0.043   0.000   0.000  -0.038
--------------------------------------------------
tot          0.164  -0.454  11.182   0.017  10.908

 
 BZINTS: Fermi energy:  7.797452;189.000000 electrons
         Band energy:-258.466548;  BLOECHL correction: -0.016193

 total amount of memory used by VASP MPI-rank0    67380. kBytes
=======================================================================

   base      :      30000. kBytes
   nonlr-proj:       7134. kBytes
   fftplans  :       3030. kBytes
   grid      :       8843. kBytes
   one-center:        294. kBytes
   wavefun   :      18079. kBytes
 
  
  
 General timing and accounting informations for this job:
 ========================================================
  
                  Total CPU time used (sec):       95.736
                            User time (sec):       93.120
                          System time (sec):        2.616
                         Elapsed time (sec):       96.971
  
                   Maximum memory used (kb):      105848.
                   Average memory used (kb):           0.
  
                          Minor page faults:        45517
                          Major page faults:            0
                 Voluntary context switches:         1412
