       N       E                     dE             d eps       ncg     rms          rms(c)
DAV:   1     0.358285523010E+04    0.35829E+04   -0.78589E+04  7512   0.245E+03
DAV:   2     0.124792277872E+04   -0.23349E+04   -0.21024E+04  7792   0.638E+02
DAV:   3     0.275419101962E+03   -0.97250E+03   -0.86942E+03  7760   0.328E+02
DAV:   4    -0.157628488427E+03   -0.43305E+03   -0.40801E+03 11240   0.180E+02
DAV:   5    -0.249542386162E+03   -0.91914E+02   -0.88462E+02 12714   0.986E+01    0.757E+01
RMM:   6    -0.223981342764E+03    0.25561E+02   -0.72065E+02 11747   0.107E+02    0.101E+02
RMM:   7    -0.223584026184E+03    0.39732E+00   -0.14653E+02 12267   0.363E+01    0.414E+01
RMM:   8    -0.217764835512E+03    0.58192E+01   -0.47968E+01  9410   0.358E+01    0.216E+01
RMM:   9    -0.219980894811E+03   -0.22161E+01   -0.25618E+01 11589   0.154E+01    0.158E+01
RMM:  10    -0.220427969873E+03   -0.44708E+00   -0.60791E+00 12891   0.613E+00    0.115E+01
RMM:  11    -0.220434071773E+03   -0.61019E-02   -0.21921E+00 12767   0.419E+00    0.600E+00
RMM:  12    -0.220474723360E+03   -0.40652E-01   -0.11041E+00 12890   0.276E+00    0.496E+00
RMM:  13    -0.220532873055E+03   -0.58150E-01   -0.49569E-01 12309   0.182E+00    0.390E+00
RMM:  14    -0.220556776667E+03   -0.23904E-01   -0.23437E-01 11864   0.147E+00    0.166E+00
RMM:  15    -0.220570952225E+03   -0.14176E-01   -0.12819E-01 11296   0.864E-01    0.106E+00
RMM:  16    -0.220575998856E+03   -0.50466E-02   -0.50277E-02 10614   0.649E-01    0.926E-01
RMM:  17    -0.220578542167E+03   -0.25433E-02   -0.30646E-02  9596   0.477E-01    0.411E-01
RMM:  18    -0.220580106761E+03   -0.15646E-02   -0.16005E-02  8179   0.428E-01    0.144E-01
RMM:  19    -0.220580996738E+03   -0.88998E-03   -0.10218E-02  7141   0.330E-01    0.123E-01
RMM:  20    -0.220581391828E+03   -0.39509E-03   -0.61293E-03  6857   0.337E-01
   1 F= -.22058139E+03 E0= -.22058139E+03  d E =0.000000E+00  mag=    14.9999
