       N       E                     dE             d eps       ncg     rms          rms(c)
DAV:   1     0.292698162455E+04    0.29270E+04   -0.68342E+04  4820   0.249E+03
DAV:   2     0.976524992743E+03   -0.19505E+04   -0.17623E+04  4976   0.619E+02
DAV:   3     0.189747015772E+03   -0.78678E+03   -0.70279E+03  4832   0.314E+02
DAV:   4    -0.137103882926E+03   -0.32685E+03   -0.31065E+03  7132   0.165E+02
DAV:   5    -0.200198928185E+03   -0.63095E+02   -0.60749E+02  8324   0.871E+01    0.789E+01
RMM:   6    -0.178609005761E+03    0.21590E+02   -0.60299E+02  7701   0.107E+02    0.101E+02
RMM:   7    -0.175224328426E+03    0.33847E+01   -0.10368E+02  7613   0.342E+01    0.479E+01
RMM:   8    -0.170866313799E+03    0.43580E+01   -0.40619E+01  6765   0.321E+01    0.237E+01
RMM:   9    -0.172256799584E+03   -0.13905E+01   -0.18333E+01  7211   0.156E+01    0.163E+01
RMM:  10    -0.172708995073E+03   -0.45220E+00   -0.34467E+00  8026   0.546E+00    0.102E+01
RMM:  11    -0.173073576584E+03   -0.36458E+00   -0.18052E+00  7748   0.396E+00    0.668E+00
RMM:  12    -0.173315510086E+03   -0.24193E+00   -0.74876E-01  8125   0.253E+00    0.377E+00
RMM:  13    -0.173436442488E+03   -0.12093E+00   -0.34515E-01  7357   0.212E+00    0.296E+00
RMM:  14    -0.173452235631E+03   -0.15793E-01   -0.16867E-01  6978   0.173E+00    0.143E+00
RMM:  15    -0.173458821761E+03   -0.65861E-02   -0.75109E-02  6826   0.775E-01    0.645E-01
RMM:  16    -0.173463912821E+03   -0.50911E-02   -0.37696E-02  6387   0.626E-01    0.520E-01
RMM:  17    -0.173466194873E+03   -0.22821E-02   -0.25078E-02  5470   0.452E-01    0.170E-01
RMM:  18    -0.173467679507E+03   -0.14846E-02   -0.12686E-02  4594   0.412E-01    0.797E-02
RMM:  19    -0.173468903429E+03   -0.12239E-02   -0.98537E-03  4341   0.334E-01    0.108E-01
RMM:  20    -0.173469357639E+03   -0.45421E-03   -0.58556E-03  4243   0.331E-01
   1 F= -.17346936E+03 E0= -.17346936E+03  d E =0.000000E+00  mag=     8.0028
