 vasp.5.4.4.18Apr17-6-g9f103f2a35 (build Oct 03 2018 13:58:34) complex          
  
 executed on             LinuxIFC date 2019.06.04  01:04:56
 running on   40 total cores
 distrk:  each k-point on   20 cores,    2 groups
 distr:  one band on NCORES_PER_BAND=  10 cores,    2 groups


--------------------------------------------------------------------------------------------------------


 INCAR:
 POTCAR:    PAW_PBE La 06Sep2000                  
 POTCAR:    PAW_PBE Mn 06Sep2000                  
 POTCAR:    PAW_PBE Ni 02Aug2007                  
 POTCAR:    PAW_PBE O 08Apr2002                   

 ----------------------------------------------------------------------------- 
|                                                                             |
|           W    W    AA    RRRRR   N    N  II  N    N   GGGG   !!!           |
|           W    W   A  A   R    R  NN   N  II  NN   N  G    G  !!!           |
|           W    W  A    A  R    R  N N  N  II  N N  N  G       !!!           |
|           W WW W  AAAAAA  RRRRR   N  N N  II  N  N N  G  GGG   !            |
|           WW  WW  A    A  R   R   N   NN  II  N   NN  G    G                |
|           W    W  A    A  R    R  N    N  II  N    N   GGGG   !!!           |
|                                                                             |
|      You have enabled k-point parallelism (KPAR>1).                         |
|      This developmental code was originally  written by Paul Kent at ORNL,  |
|      and carefully double checked in Vienna.                                |
|      GW as well as linear response parallelism added by Martijn Marsman     |
|      and Georg Kresse.                                                      |
|      Carefully verify results versus KPAR=1.                                |
|      Report problems to Paul Kent and Vienna.                               |
|                                                                             |
 ----------------------------------------------------------------------------- 

 POTCAR:    PAW_PBE La 06Sep2000                  
   VRHFIN =La : [core=Kr4d]                                                     
   LEXCH  = PE                                                                  
   EATOM  =   865.9763 eV,   63.6475 Ry                                         
                                                                                
   TITEL  = PAW_PBE La 06Sep2000                                                
   LULTRA =        F    use ultrasoft PP ?                                      
   IUNSCR =        1    unscreen: 0-lin 1-nonlin 2-no                           
   RPACOR =    2.300    partial core radius                                     
   POMASS =  138.900; ZVAL   =   11.000    mass and valenz                      
   RCORE  =    2.800    outmost cutoff radius                                   
   RWIGS  =    2.900; RWIGS  =    1.535    wigner-seitz radius (au A)           
   ENMAX  =  219.292; ENMIN  =  164.469 eV                                      
   RCLOC  =    1.601    cutoff for local pot                                    
   LCOR   =        T    correct aug charges                                     
   LPAW   =        T    paw PP                                                  
   EAUG   =  583.575                                                            
   DEXC   =    0.000                                                            
   RMAX   =    2.853    core radius for proj-oper                               
   RAUG   =    1.300    factor for augmentation sphere                          
   RDEP   =    2.802    radius for radial grids                                 
   RDEPT  =    2.156    core radius for aug-charge                              
                                                                                
   Atomic configuration                                                         
   14 entries                                                                   
     n  l   j            E        occ.                                          
     1  0  0.50    -38741.0879   2.0000                                         
     2  0  0.50     -6166.6801   2.0000                                         
     2  1  1.50     -5526.1593   6.0000                                         
     3  0  0.50     -1319.0200   2.0000                                         
     3  1  1.50     -1114.5963   6.0000                                         
     3  2  2.50      -821.1793  10.0000                                         
     4  0  0.50      -266.3851   2.0000                                         
     4  1  1.50      -199.9276   6.0000                                         
     4  2  2.50      -103.8239  10.0000                                         
     5  0  0.50       -38.9172   2.0000                                         
     6  0  0.50        -3.6792   2.0000                                         
     5  1  1.50       -22.3948   6.0000                                         
     5  2  2.50        -3.0911   0.9999                                         
     4  3  2.50        -4.3603   0.0001                                         
   Description                                                                  
     l       E           TYP  RCUT    TYP  RCUT                                 
     0    -38.9171645     23  2.800                                             
     0     -3.6792381     23  2.800                                             
     1    -22.3948300     23  2.500                                             
     1     27.2116520     23  2.500                                             
     2     -3.0910934     23  2.500                                             
     2      1.0119135     23  2.500                                             
     3     -4.3602911     23  2.800                                             
     3     -5.7208737     23  2.800                                             
  local pseudopotential read in
  partial core-charges read in
  partial kinetic energy density read in
  atomic valenz-charges read in
  non local Contribution for L=           0  read in
    real space projection operators read in
  non local Contribution for L=           0  read in
    real space projection operators read in
  non local Contribution for L=           1  read in
    real space projection operators read in
  non local Contribution for L=           1  read in
    real space projection operators read in
  non local Contribution for L=           2  read in
    real space projection operators read in
  non local Contribution for L=           2  read in
    real space projection operators read in
  non local Contribution for L=           3  read in
    real space projection operators read in
  non local Contribution for L=           3  read in
    real space projection operators read in
    PAW grid and wavefunctions read in
 
   number of l-projection  operators is LMAX  =           8
   number of lm-projection operators is LMMAX =          32
 
 POTCAR:    PAW_PBE Mn 06Sep2000                  
   VRHFIN =Mn: d6 s1                                                            
   LEXCH  = PE                                                                  
   EATOM  =   416.7541 eV,   30.6306 Ry                                         
                                                                                
   TITEL  = PAW_PBE Mn 06Sep2000                                                
   LULTRA =        F    use ultrasoft PP ?                                      
   IUNSCR =        1    unscreen: 0-lin 1-nonlin 2-no                           
   RPACOR =    2.000    partial core radius                                     
   POMASS =   54.938; ZVAL   =    7.000    mass and valenz                      
   RCORE  =    2.300    outmost cutoff radius                                   
   RWIGS  =    2.500; RWIGS  =    1.323    wigner-seitz radius (au A)           
   ENMAX  =  269.864; ENMIN  =  202.398 eV                                      
   RCLOC  =    1.725    cutoff for local pot                                    
   LCOR   =        T    correct aug charges                                     
   LPAW   =        T    paw PP                                                  
   EAUG   =  500.711                                                            
   DEXC   =    0.000                                                            
   RMAX   =    2.343    core radius for proj-oper                               
   RAUG   =    1.300    factor for augmentation sphere                          
   RDEP   =    2.338    radius for radial grids                                 
   RDEPT  =    1.911    core radius for aug-charge                              
                                                                                
   Atomic configuration                                                         
    9 entries                                                                   
     n  l   j            E        occ.                                          
     1  0  0.50     -6424.8288   2.0000                                         
     2  0  0.50      -739.1154   2.0000                                         
     2  1  1.50      -625.3949   6.0000                                         
     3  0  0.50       -81.6100   2.0000                                         
     3  1  1.50       -50.4667   6.0000                                         
     3  2  2.50        -3.3745   6.0000                                         
     4  0  0.50        -4.1331   1.0000                                         
     4  1  0.50        -4.0817   0.0000                                         
     4  3  2.50        -1.3606   0.0000                                         
   Description                                                                  
     l       E           TYP  RCUT    TYP  RCUT                                 
     2     -3.3744664     23  2.300                                             
     2     -4.7350490     23  2.300                                             
     0     -4.1331408     23  2.300                                             
     0      7.6656614     23  2.300                                             
     1     -2.7211652     23  2.300                                             
     1     20.4087390     23  2.300                                             
  local pseudopotential read in
  partial core-charges read in
  partial kinetic energy density read in
  atomic valenz-charges read in
  non local Contribution for L=           2  read in
    real space projection operators read in
  non local Contribution for L=           2  read in
    real space projection operators read in
  non local Contribution for L=           0  read in
    real space projection operators read in
  non local Contribution for L=           0  read in
    real space projection operators read in
  non local Contribution for L=           1  read in
    real space projection operators read in
  non local Contribution for L=           1  read in
    real space projection operators read in
    PAW grid and wavefunctions read in
 
   number of l-projection  operators is LMAX  =           6
   number of lm-projection operators is LMMAX =          18
 
 POTCAR:    PAW_PBE Ni 02Aug2007                  
   VRHFIN =Ni:                                                                  
   LEXCH  = PE                                                                  
   EATOM  =  1077.6739 eV,   79.2068 Ry                                         
                                                                                
   TITEL  = PAW_PBE Ni 02Aug2007                                                
   LULTRA =        F    use ultrasoft PP ?                                      
   IUNSCR =        1    unscreen: 0-lin 1-nonlin 2-no                           
   RPACOR =    2.000    partial core radius                                     
   POMASS =   58.690; ZVAL   =   10.000    mass and valenz                      
   RCORE  =    2.300    outmost cutoff radius                                   
   RWIGS  =    2.430; RWIGS  =    1.286    wigner-seitz radius (au A)           
   ENMAX  =  269.532; ENMIN  =  202.149 eV                                      
   RCLOC  =    1.201    cutoff for local pot                                    
   LCOR   =        T    correct aug charges                                     
   LPAW   =        T    paw PP                                                  
   EAUG   =  544.565                                                            
   DEXC   =    0.000                                                            
   RMAX   =    2.357    core radius for proj-oper                               
   RAUG   =    1.300    factor for augmentation sphere                          
   RDEP   =    2.390    radius for radial grids                                 
   RDEPT  =    1.838    core radius for aug-charge                              
                                                                                
   Atomic configuration                                                         
    9 entries                                                                   
     n  l   j            E        occ.                                          
     1  0  0.50     -8206.4253   2.0000                                         
     2  0  0.50      -976.1748   2.0000                                         
     2  1  1.50      -839.0571   6.0000                                         
     3  0  0.50      -105.9991   2.0000                                         
     3  1  1.50       -66.4603   6.0000                                         
     3  2  2.50        -4.6458   9.0000                                         
     4  0  0.50        -4.4926   1.0000                                         
     4  1  1.50        -4.0817   0.0000                                         
     4  3  2.50        -1.3606   0.0000                                         
   Description                                                                  
     l       E           TYP  RCUT    TYP  RCUT                                 
     2     -4.6457903     23  2.300                                             
     2     -6.0063729     23  2.300                                             
     0     -4.4925590     23  2.300                                             
     0      5.0102601     23  2.300                                             
     1     -2.7211652     23  2.300                                             
     1     16.5183231     23  2.300                                             
  local pseudopotential read in
  partial core-charges read in
  partial kinetic energy density read in
  atomic valenz-charges read in
  non local Contribution for L=           2  read in
    real space projection operators read in
  non local Contribution for L=           2  read in
    real space projection operators read in
  non local Contribution for L=           0  read in
    real space projection operators read in
  non local Contribution for L=           0  read in
    real space projection operators read in
  non local Contribution for L=           1  read in
    real space projection operators read in
  non local Contribution for L=           1  read in
    real space projection operators read in
    PAW grid and wavefunctions read in
 
   number of l-projection  operators is LMAX  =           6
   number of lm-projection operators is LMMAX =          18
 
 POTCAR:    PAW_PBE O 08Apr2002                   
   VRHFIN =O: s2p4                                                              
   LEXCH  = PE                                                                  
   EATOM  =   432.3788 eV,   31.7789 Ry                                         
                                                                                
   TITEL  = PAW_PBE O 08Apr2002                                                 
   LULTRA =        F    use ultrasoft PP ?                                      
   IUNSCR =        1    unscreen: 0-lin 1-nonlin 2-no                           
   RPACOR =    1.200    partial core radius                                     
   POMASS =   16.000; ZVAL   =    6.000    mass and valenz                      
   RCORE  =    1.520    outmost cutoff radius                                   
   RWIGS  =    1.550; RWIGS  =    0.820    wigner-seitz radius (au A)           
   ENMAX  =  400.000; ENMIN  =  300.000 eV                                      
   ICORE  =        2    local potential                                         
   LCOR   =        T    correct aug charges                                     
   LPAW   =        T    paw PP                                                  
   EAUG   =  605.392                                                            
   DEXC   =    0.000                                                            
   RMAX   =    1.553    core radius for proj-oper                               
   RAUG   =    1.300    factor for augmentation sphere                          
   RDEP   =    1.550    radius for radial grids                                 
   RDEPT  =    1.329    core radius for aug-charge                              
                                                                                
   Atomic configuration                                                         
    4 entries                                                                   
     n  l   j            E        occ.                                          
     1  0  0.50      -514.6923   2.0000                                         
     2  0  0.50       -23.9615   2.0000                                         
     2  1  0.50        -9.0305   4.0000                                         
     3  2  1.50        -9.5241   0.0000                                         
   Description                                                                  
     l       E           TYP  RCUT    TYP  RCUT                                 
     0    -23.9615318     23  1.200                                             
     0     -9.5240782     23  1.200                                             
     1     -9.0304911     23  1.520                                             
     1      8.1634956     23  1.520                                             
     2     -9.5240782      7  1.500                                             
  local pseudopotential read in
  partial core-charges read in
  partial kinetic energy density read in
  kinetic energy density of atom read in
  atomic valenz-charges read in
  non local Contribution for L=           0  read in
    real space projection operators read in
  non local Contribution for L=           0  read in
    real space projection operators read in
  non local Contribution for L=           1  read in
    real space projection operators read in
  non local Contribution for L=           1  read in
    real space projection operators read in
    PAW grid and wavefunctions read in
 
   number of l-projection  operators is LMAX  =           4
   number of lm-projection operators is LMMAX =           8
 
 Optimization of the real space projectors (new method)

 maximal supplied QI-value         = 13.42
 optimisation between [QCUT,QGAM] = [ 11.67, 23.35] = [ 38.16,152.62] Ry 
 Optimized for a Real-space Cutoff    1.63 Angstroem

   l    n(q)    QCUT    max X(q) W(low)/X(q) W(high)/X(q)  e(spline) 
   0     11    11.673    13.882    0.27E-04    0.79E-05    0.11E-06
   0     11    11.673    12.184    0.39E-04    0.13E-04    0.19E-06
   1     11    11.673     4.523    0.73E-05    0.76E-05    0.12E-06
   1     11    11.673     4.424    0.87E-05    0.13E-04    0.19E-06
   2     10    11.673    52.481    0.65E-04    0.36E-04    0.18E-06
   2     10    11.673    38.501    0.61E-04    0.33E-04    0.17E-06
   3     10    11.673    65.631    0.17E-03    0.14E-03    0.37E-06
   3     10    11.673    56.854    0.17E-03    0.14E-03    0.37E-06
 Optimization of the real space projectors (new method)

 maximal supplied QI-value         = 16.25
 optimisation between [QCUT,QGAM] = [ 11.54, 23.24] = [ 37.28,151.24] Ry 
 Optimized for a Real-space Cutoff    1.53 Angstroem

   l    n(q)    QCUT    max X(q) W(low)/X(q) W(high)/X(q)  e(spline) 
   2     10    11.539   110.144    0.12E-03    0.13E-03    0.25E-06
   2     10    11.539   103.200    0.12E-03    0.13E-03    0.25E-06
   0     11    11.539    68.437    0.46E-04    0.21E-04    0.32E-06
   0     11    11.539    33.971    0.37E-04    0.19E-04    0.29E-06
   1     10    11.539    17.065    0.51E-04    0.22E-04    0.13E-06
   1     10    11.539    12.540    0.41E-04    0.18E-04    0.11E-06
 Optimization of the real space projectors (new method)

 maximal supplied QI-value         = 16.25
 optimisation between [QCUT,QGAM] = [ 11.54, 23.24] = [ 37.28,151.24] Ry 
 Optimized for a Real-space Cutoff    1.45 Angstroem

   l    n(q)    QCUT    max X(q) W(low)/X(q) W(high)/X(q)  e(spline) 
   2      9    11.539    60.317    0.19E-03    0.47E-04    0.16E-06
   2      9    11.539    55.921    0.19E-03    0.48E-04    0.16E-06
   0     10    11.539    51.690    0.80E-04    0.50E-04    0.24E-06
   0     10    11.539    30.015    0.73E-04    0.45E-04    0.22E-06
   1     10    11.539    18.849    0.87E-04    0.16E-03    0.71E-07
   1     10    11.539    14.624    0.73E-04    0.13E-03    0.64E-07
 Optimization of the real space projectors (new method)

 maximal supplied QI-value         = 24.76
 optimisation between [QCUT,QGAM] = [ 11.64, 23.27] = [ 37.91,151.63] Ry 
 Optimized for a Real-space Cutoff    1.14 Angstroem

   l    n(q)    QCUT    max X(q) W(low)/X(q) W(high)/X(q)  e(spline) 
   0      8    11.635    20.381    0.10E-03    0.33E-03    0.24E-06
   0      8    11.635    15.268    0.11E-03    0.35E-03    0.26E-06
   1      7    11.635     5.964    0.24E-03    0.31E-03    0.30E-06
   1      7    11.635     5.382    0.22E-03    0.25E-03    0.26E-06
  PAW_PBE La 06Sep2000                  :
 energy of atom  1       EATOM= -865.9763
 kinetic energy error for atom=    0.0009 (will be added to EATOM!!)
  PAW_PBE Mn 06Sep2000                  :
 energy of atom  2       EATOM= -416.7541
 kinetic energy error for atom=    0.0024 (will be added to EATOM!!)
  PAW_PBE Ni 02Aug2007                  :
 energy of atom  3       EATOM=-1077.6739
 kinetic energy error for atom=    0.0030 (will be added to EATOM!!)
  PAW_PBE O 08Apr2002                   :
 energy of atom  4       EATOM= -432.3788
 kinetic energy error for atom=    0.0208 (will be added to EATOM!!)
 
 
 POSCAR: SCEL6_1_3_2_1_0_0/1                     
  positions in direct lattice
  velocities in cartesian coordinates
 exchange correlation table for  LEXCH =        8
   RHO(1)=    0.500       N(1)  =     2000
   RHO(2)=  100.500       N(2)  =     4000
 


--------------------------------------------------------------------------------------------------------


 ion  position               nearest neighbor table
   1  0.000  0.667  0.167-  29 2.76  30 2.76  22 2.76  22 2.76  23 2.76  23 2.76  17 2.77  17 2.77
                            13 2.77  13 2.77  25 2.78  28 2.78  11 3.37  11 3.37  12 3.37  12 3.37
   2  0.000  0.321  0.320-  18 2.66  18 2.66  30 2.67  29 2.67  22 2.78  22 2.78  21 2.79  21 2.79
                            12 3.30  12 3.30  11 3.32  11 3.32   6 3.59
   3  0.000  0.002  0.491-  29 2.63  21 2.70  21 2.70  17 2.71  17 2.71  28 2.76  27 2.76  15 2.81
                            15 2.81  11 3.29  11 3.29   9 3.37   9 3.37  10 3.41  10 3.41
   4  0.000  0.667  0.667-  14 2.74  14 2.74  16 2.74  16 2.74  25 2.75  28 2.75  26 2.75  27 2.75
                            19 2.76  19 2.76  20 2.76  20 2.76   8 3.38  10 3.38   8 3.38  10 3.38
   5  0.000  0.332  0.843-  30 2.63  24 2.70  24 2.70  13 2.71  13 2.71  25 2.76  26 2.76  15 2.81
                            15 2.81  12 3.29  12 3.29   7 3.37   7 3.37   8 3.41   8 3.41
   6  0.000  0.012  0.013-  18 2.66  18 2.66  29 2.67  30 2.67  23 2.78  23 2.78  24 2.79  24 2.79
                            11 3.30  11 3.30  12 3.32  12 3.32   2 3.59
   7  0.500  0.000  0.750-  24 1.89  20 1.95  26 1.96  26 1.96  15 1.96  14 1.99   5 3.37   5 3.37
                             4 3.39   4 3.39
   8  0.500  0.668  0.917-  23 1.88  13 1.93  14 1.93  19 1.95  25 1.96  25 1.96   1 3.38   1 3.38
                             4 3.38   4 3.38   5 3.41   5 3.41
   9  0.500  0.333  0.583-  21 1.89  19 1.95  27 1.96  27 1.96  15 1.96  16 1.99   3 3.37   3 3.37
                             4 3.39   4 3.39
  10  0.500  0.666  0.416-  22 1.88  17 1.93  16 1.93  20 1.95  28 1.96  28 1.96   1 3.38   1 3.38
                             4 3.38   4 3.38   3 3.41   3 3.41
  11  0.500  0.998  0.250-  29 1.96  29 1.96  18 1.98  17 1.99  23 1.99  21 2.00   3 3.29   3 3.29
                             6 3.30   6 3.30   2 3.32   2 3.32   1 3.37   1 3.37
  12  0.500  0.335  0.083-  30 1.96  30 1.96  18 1.98  13 1.99  22 1.99  24 2.00   5 3.29   5 3.29
                             2 3.30   2 3.30   6 3.32   6 3.32   1 3.37   1 3.37
  13  0.500  0.503  0.997-   8 1.93  12 1.99   5 2.71   5 2.71   1 2.77   1 2.77
  14  0.500  0.828  0.832-   8 1.93   7 1.99   4 2.74   4 2.74
  15  0.500  0.167  0.667-   9 1.96   7 1.96   5 2.81   5 2.81   3 2.81   3 2.81
  16  0.500  0.505  0.501-  10 1.93   9 1.99   4 2.74   4 2.74
  17  0.500  0.831  0.336-  10 1.93  11 1.99   3 2.71   3 2.71   1 2.77   1 2.77
  18  0.500  0.167  0.167-  12 1.98  11 1.98   2 2.66   2 2.66   6 2.66   6 2.66
  19  0.500  0.501  0.750-   9 1.95   8 1.95   4 2.76   4 2.76
  20  0.500  0.832  0.584-   7 1.95  10 1.95   4 2.76   4 2.76
  21  0.500  0.170  0.422-   9 1.89  11 2.00   3 2.70   3 2.70   2 2.79   2 2.79
  22  0.500  0.505  0.254-  10 1.88  12 1.99   1 2.76   1 2.76   2 2.78   2 2.78
  23  0.500  0.828  0.079-   8 1.88  11 1.99   1 2.76   1 2.76   6 2.78   6 2.78
  24  0.500  0.164  0.912-   7 1.89  12 2.00   5 2.70   5 2.70   6 2.79   6 2.79
  25  0.000  0.664  0.915-   8 1.96   8 1.96   4 2.75   5 2.76   1 2.78
  26  0.000  0.998  0.749-   7 1.96   7 1.96   4 2.75   5 2.76
  27  0.000  0.335  0.585-   9 1.96   9 1.96   4 2.75   3 2.76
  28  0.000  0.669  0.419-  10 1.96  10 1.96   4 2.75   3 2.76   1 2.78
  29  0.000  0.999  0.252-  11 1.96  11 1.96   3 2.63   6 2.67   2 2.67   1 2.76
  30  0.000  0.334  0.082-  12 1.96  12 1.96   5 2.63   2 2.67   6 2.67   1 2.76
 
  LATTYP: Found a simple monoclinic cell.
 ALAT       =    11.6627750320
 B/A-ratio  =     0.3353742337
 C/A-ratio  =     1.4936763038
 COS(beta)  =    -0.8928318130
  
  Lattice vectors:
  
 A1 = (   0.0000000000, -11.6627747998,  -0.0023273444)
 A2 = (   3.9113942390,   0.0000000000,   0.0000000000)
 A3 = (   0.0000000000,  15.5519308702,   7.8490862680)


Analysis of symmetry for initial positions (statically):
=====================================================================
 Subroutine PRICEL returns:
 Original cell was already a primitive cell.
 

 Routine SETGRP: Setting up the symmetry group for a 
 simple monoclinic supercell.


 Subroutine GETGRP returns: Found  4 space group operations
 (whereof  2 operations were pure point group operations)
 out of a pool of  4 trial point group operations.


The static configuration has the point symmetry C_1h.
 The point group associated with its full space group is C_2h.


Analysis of symmetry for dynamics (positions and initial velocities):
=====================================================================
 Subroutine PRICEL returns:
 Original cell was already a primitive cell.
 

 Routine SETGRP: Setting up the symmetry group for a 
 simple monoclinic supercell.


 Subroutine GETGRP returns: Found  4 space group operations
 (whereof  2 operations were pure point group operations)
 out of a pool of  4 trial point group operations.


The dynamic configuration has the point symmetry C_1h.
 The point group associated with its full space group is C_2h.


Analysis of structural, dynamic, and magnetic symmetry:
=====================================================================
 Subroutine PRICEL returns:
 Original cell was already a primitive cell.
 

 Routine SETGRP: Setting up the symmetry group for a 
 simple monoclinic supercell.


 Subroutine GETGRP returns: Found  4 space group operations
 (whereof  2 operations were pure point group operations)
 out of a pool of  4 trial point group operations.


The magnetic configuration has the point symmetry C_1h.
 The point group associated with its full space group is C_2h.


 Subroutine INISYM returns: Found  4 space group operations
 (whereof  2 operations are pure point group operations),
 and found     1 'primitive' translations

 
 
 KPOINTS: Automatic mesh                          

Automatic generation of k-mesh.
 generate k-points for:    5    2    2
Space group operators:
 irot       det(A)        alpha          n_x          n_y          n_z        tau_x        tau_y        tau_z
    1     1.000000     0.000000     1.000000     0.000000     0.000000     0.000000     0.000000     0.000000
    2    -1.000000   180.000000     1.000000     0.000000     0.000000     0.000000     0.000000     0.000000
    3    -1.000000     0.000000     1.000000     0.000000     0.000000     0.000000    -0.666667    -0.666667
    4     1.000000   180.000000     1.000000     0.000000     0.000000     0.000000    -0.666667    -0.666667
 
 Subroutine IBZKPT returns following result:
 ===========================================
 
 Found     12 irreducible k-points:
 
 Following reciprocal coordinates:
            Coordinates               Weight
  0.000000  0.000000  0.000000      1.000000
  0.200000  0.000000  0.000000      2.000000
  0.400000  0.000000  0.000000      2.000000
  0.000000  0.500000  0.000000      1.000000
  0.200000  0.500000  0.000000      2.000000
  0.400000  0.500000  0.000000      2.000000
  0.000000  0.000000  0.500000      1.000000
  0.200000  0.000000  0.500000      2.000000
  0.400000  0.000000  0.500000      2.000000
  0.000000  0.500000  0.500000      1.000000
  0.200000  0.500000  0.500000      2.000000
  0.400000  0.500000  0.500000      2.000000
 
 Following cartesian coordinates:
            Coordinates               Weight
  0.000000  0.000000  0.000000      1.000000
 -0.051133  0.000000  0.000000      2.000000
 -0.102265  0.000000  0.000000      2.000000
  0.000000  0.042863  0.042476      1.000000
 -0.051133  0.042863  0.042476      2.000000
 -0.102265  0.042863  0.042476      2.000000
  0.000000  0.042876 -0.021251      1.000000
 -0.051133  0.042876 -0.021251      2.000000
 -0.102265  0.042876 -0.021251      2.000000
  0.000000  0.085739  0.021225      1.000000
 -0.051133  0.085739  0.021225      2.000000
 -0.102265  0.085739  0.021225      2.000000
 
 TETIRR: Found     60 inequivalent tetrahedra from      120


--------------------------------------------------------------------------------------------------------




 Dimension of arrays:
   k-points           NKPTS =     12   k-points in BZ     NKDIM =     12   number of bands    NBANDS=    144
   number of dos      NEDOS =    301   number of ions     NIONS =     30
   non local maximal  LDIM  =      8   non local SUM 2l+1 LMDIM =     32
   total plane-waves  NPLWV = 176400
   max r-space proj   IRMAX =   8945   max aug-charges    IRDMAX=  25950
   dimension x,y,z NGX =    30 NGY =   70 NGZ =   84
   dimension x,y,z NGXF=    60 NGYF=  140 NGZF=  168
   support grid    NGXF=    60 NGYF=  140 NGZF=  168
   ions per type =               6   4   2  18
   NGX,Y,Z   is equivalent  to a cutoff of  12.75, 13.29, 12.64 a.u.
   NGXF,Y,Z  is equivalent  to a cutoff of  25.50, 26.58, 25.29 a.u.

 SYSTEM =  final                                   
 POSCAR =  SCEL6_1_3_2_1_0_0/1                     

 Startparameter for this run:
   NWRITE =      2    write-flag & timer
   PREC   = accura    normal or accurate (medium, high low for compatibility)
   ISTART =      0    job   : 0-new  1-cont  2-samecut
   ICHARG =      1    charge: 1-file 2-atom 10-const
   ISPIN  =      2    spin polarized calculation?
   LNONCOLLINEAR =      F non collinear calculations
   LSORBIT =      F    spin-orbit coupling
   INIWAV =      1    electr: 0-lowe 1-rand  2-diag
   LASPH  =      F    aspherical Exc in radial PAW
   METAGGA=      F    non-selfconsistent MetaGGA calc.

 Electronic Relaxation 1
   ENCUT  =  520.0 eV  38.22 Ry    6.18 a.u.   7.27 16.28 20.53*2*pi/ulx,y,z
   ENINI  =  520.0     initial cutoff
   ENAUG  =  605.4 eV  augmentation charge cutoff
   NELM   =    100;   NELMIN=  2; NELMDL= -5     # of ELM steps 
   EDIFF  = 0.1E-02   stopping-criterion for ELM
   LREAL  =      T    real-space projection
   NLSPLINE    = F    spline interpolate recip. space projectors
   LCOMPAT=      F    compatible to vasp.4.4
   GGA_COMPAT  = T    GGA compatible to vasp.4.4-vasp.4.6
   LMAXPAW     = -100 max onsite density
   LMAXMIX     =    6 max onsite mixed and CHGCAR
   VOSKOWN=      0    Vosko Wilk Nusair interpolation
   ROPT   =   -0.00025  -0.00025  -0.00025  -0.00025
 Ionic relaxation
   EDIFFG = 0.1E-01   stopping-criterion for IOM
   NSW    =      0    number of steps for IOM
   NBLOCK =      1;   KBLOCK =      1    inner block; outer block 
   IBRION =     -1    ionic relax: 0-MD 1-quasi-New 2-CG
   NFREE  =      0    steps in history (QN), initial steepest desc. (CG)
   ISIF   =      2    stress and relaxation
   IWAVPR =     10    prediction:  0-non 1-charg 2-wave 3-comb
   ISYM   =      2    0-nonsym 1-usesym 2-fastsym
   LCORR  =      T    Harris-Foulkes like correction to forces

   POTIM  = 0.5000    time-step for ionic-motion
   TEIN   =    0.0    initial temperature
   TEBEG  =    0.0;   TEEND  =   0.0 temperature during run
   SMASS  =  -3.00    Nose mass-parameter (am)
   estimated Nose-frequenzy (Omega)   =  0.10E-29 period in steps =****** mass=  -0.350E-27a.u.
   SCALEE = 1.0000    scale energy and forces
   NPACO  =    256;   APACO  = 16.0  distance and # of slots for P.C.
   PSTRESS=    0.0 pullay stress

  Mass of Ions in am
   POMASS = 138.90 54.94 58.69 16.00
  Ionic Valenz
   ZVAL   =  11.00  7.00 10.00  6.00
  Atomic Wigner-Seitz radii
   RWIGS  =  -1.00 -1.00 -1.00 -1.00
  virtual crystal weights 
   VCA    =   1.00  1.00  1.00  1.00
   NELECT =     222.0000    total number of electrons
   NUPDOWN=      -1.0000    fix difference up-down

 DOS related values:
   EMIN   =  10.00;   EMAX   =-10.00  energy-range for DOS
   EFERMI =   0.00
   ISMEAR =    -5;   SIGMA  =   0.05  broadening in eV -4-tet -1-fermi 0-gaus

 Electronic relaxation 2 (details)
   IALGO  =     68    algorithm
   LDIAG  =      T    sub-space diagonalisation (order eigenvalues)
   LSUBROT=      F    optimize rotation matrix (better conditioning)
   TURBO    =      0    0=normal 1=particle mesh
   IRESTART =      0    0=no restart 2=restart with 2 vectors
   NREBOOT  =      0    no. of reboots
   NMIN     =      0    reboot dimension
   EREF     =   0.00    reference energy to select bands
   IMIX   =      4    mixing-type and parameters
     AMIX     =   0.40;   BMIX     =  1.00
     AMIX_MAG =   1.60;   BMIX_MAG =  1.00
     AMIN     =   0.10
     WC   =   100.;   INIMIX=   1;  MIXPRE=   1;  MAXMIX= -45

 Intra band minimization:
   WEIMIN = 0.0000     energy-eigenvalue tresh-hold
   EBREAK =  0.17E-05  absolut break condition
   DEPER  =   0.30     relativ break condition  

   TIME   =   0.40     timestep for ELM

  volume/ion in A,a.u.               =      11.93        80.51
  Fermi-wavevector in a.u.,A,eV,Ry     =   1.396150  2.638342 26.520966  1.949236
  Thomas-Fermi vector in A             =   2.519533
 
 Write flags
   LWAVE        =      F    write WAVECAR
   LDOWNSAMPLE  =      F    k-point downsampling of WAVECAR
   LCHARG       =      T    write CHGCAR
   LVTOT        =      F    write LOCPOT, total local potential
   LVHAR        =      F    write LOCPOT, Hartree potential only
   LELF         =      F    write electronic localiz. function (ELF)
   LORBIT       =     11    0 simple, 1 ext, 2 COOP (PROOUT), +10 PAW based schemes


 Dipole corrections
   LMONO  =      F    monopole corrections only (constant potential shift)
   LDIPOL =      F    correct potential (dipole corrections)
   IDIPOL =      0    1-x, 2-y, 3-z, 4-all directions 
   EPSILON=  1.0000000 bulk dielectric constant

 LDA+U is selected, type is set to LDAUTYPE =  2
   angular momentum for each species LDAUL =     0    2    2    0
   U (eV)           for each species LDAUU =   0.0  3.9  6.2  0.0
   J (eV)           for each species LDAUJ =   0.0  0.0  0.0  0.0
 Exchange correlation treatment:
   GGA     =    --    GGA type
   LEXCH   =     8    internal setting for exchange type
   VOSKOWN=      0    Vosko Wilk Nusair interpolation
   LHFCALC =     F    Hartree Fock is set to
   LHFONE  =     F    Hartree Fock one center treatment
   AEXX    =    0.0000 exact exchange contribution

 Linear response parameters
   LEPSILON=     F    determine dielectric tensor
   LRPA    =     F    only Hartree local field effects (RPA)
   LNABLA  =     F    use nabla operator in PAW spheres
   LVEL    =     F    velocity operator in full k-point grid
   LINTERFAST=   F  fast interpolation
   KINTER  =     0    interpolate to denser k-point grid
   CSHIFT  =0.1000    complex shift for real part using Kramers Kronig
   OMEGAMAX=  -1.0    maximum frequency
   DEG_THRESHOLD= 0.2000000E-02 threshold for treating states as degnerate
   RTIME   =   -0.100 relaxation time in fs
  (WPLASMAI=    0.000 imaginary part of plasma frequency in eV, 0.658/RTIME)
   DFIELD  = 0.0000000 0.0000000 0.0000000 field for delta impulse in time
 
 Orbital magnetization related:
   ORBITALMAG=     F  switch on orbital magnetization
   LCHIMAG   =     F  perturbation theory with respect to B field
   DQ        =  0.001000  dq finite difference perturbation B field
   LLRAUG    =     F  two centre corrections for induced B field



--------------------------------------------------------------------------------------------------------


 Static calculation
 charge density and potential will be updated during run
 spin polarized calculation
 RMM-DIIS sequential band-by-band and
  variant of blocked Davidson during initial phase
 perform sub-space diagonalisation
    before iterative eigenvector-optimisation
 modified Broyden-mixing scheme, WC =      100.0
 initial mixing is a Kerker type mixing with AMIX =  0.4000 and BMIX =      1.0000
 Hartree-type preconditioning will be used
 using additional bands           33
 real space projection scheme for non local part
 use partial core corrections
 calculate Harris-corrections to forces 
   (improved forces if not selfconsistent)
 use gradient corrections 
 use of overlap-Matrix (Vanderbilt PP)
 Fermi weights with tetrahedron method with Bloechl corrections


--------------------------------------------------------------------------------------------------------


  energy-cutoff  :      520.00
  volume of cell :      357.92
      direct lattice vectors                 reciprocal lattice vectors
    -3.911394239  0.000000000  0.000000000    -0.255663311  0.000000000  0.000000000
     0.000000000  3.889156070  7.846758924     0.000000000  0.085725936  0.084952075
     0.000000000  7.773618729 -7.844431579     0.000000000  0.085751370 -0.042501683

  length of vectors
     3.911394239  8.757691508 11.043742796     0.255663311  0.120688820  0.095706272


 
 k-points in units of 2pi/SCALE and weight: Automatic mesh                          
   0.00000000  0.00000000  0.00000000       0.050
  -0.05113266  0.00000000  0.00000000       0.100
  -0.10226532  0.00000000  0.00000000       0.100
   0.00000000  0.04286297  0.04247604       0.050
  -0.05113266  0.04286297  0.04247604       0.100
  -0.10226532  0.04286297  0.04247604       0.100
   0.00000000  0.04287568 -0.02125084       0.050
  -0.05113266  0.04287568 -0.02125084       0.100
  -0.10226532  0.04287568 -0.02125084       0.100
   0.00000000  0.08573865  0.02122520       0.050
  -0.05113266  0.08573865  0.02122520       0.100
  -0.10226532  0.08573865  0.02122520       0.100
 
 k-points in reciprocal lattice and weights: Automatic mesh                          
   0.00000000  0.00000000  0.00000000       0.050
   0.20000000  0.00000000  0.00000000       0.100
   0.40000000  0.00000000  0.00000000       0.100
   0.00000000  0.50000000  0.00000000       0.050
   0.20000000  0.50000000  0.00000000       0.100
   0.40000000  0.50000000  0.00000000       0.100
   0.00000000  0.00000000  0.50000000       0.050
   0.20000000  0.00000000  0.50000000       0.100
   0.40000000  0.00000000  0.50000000       0.100
   0.00000000  0.50000000  0.50000000       0.050
   0.20000000  0.50000000  0.50000000       0.100
   0.40000000  0.50000000  0.50000000       0.100
 
 position of ions in fractional coordinates (direct lattice) 
   0.00000000  0.66666670  0.16666670
   0.00000000  0.32147769  0.32028207
   0.00000000  0.00167797  0.49053466
   0.00000000  0.66666670  0.66666670
   0.00000000  0.33165533  0.84279864
   0.00000000  0.01185561  0.01305123
   0.50000000  0.00012820  0.75002779
   0.50000000  0.66768219  0.91695272
   0.50000000  0.33320510  0.58330551
   0.50000000  0.66565121  0.41638068
   0.50000000  0.99832522  0.25015993
   0.50000000  0.33500808  0.08317337
   0.50000000  0.50264682  0.99726516
   0.50000000  0.82848301  0.83185606
   0.50000000  0.16666670  0.66666670
   0.50000000  0.50485029  0.50147724
   0.50000000  0.83068648  0.33606814
   0.50000000  0.16666670  0.16666670
   0.50000000  0.50122976  0.74954670
   0.50000000  0.83210354  0.58378660
   0.50000000  0.16969790  0.42159763
   0.50000000  0.50524039  0.25425311
   0.50000000  0.82809291  0.07908019
   0.50000000  0.16363550  0.91173577
   0.00000000  0.66439026  0.91467573
   0.00000000  0.99846093  0.74879022
   0.00000000  0.33487237  0.58454308
   0.00000000  0.66894314  0.41865767
   0.00000000  0.99928703  0.25157744
   0.00000000  0.33404627  0.08175586
 
 position of ions in cartesian coordinates  (Angst):
   0.00000000  3.88837422  3.92376735
   0.00000000  3.74002762  0.01012719
   0.00000000  3.81975532 -3.83479902
   0.00000000  7.77518359  0.00155156
   0.00000000  7.84145462 -4.00885678
   0.00000000  0.14756359 -0.00935141
  -1.95569712  5.83092866 -5.88253577
  -1.95569712  9.72476109 -1.95383167
  -1.95569712  5.83028129 -1.96112003
  -1.95569712  5.82560609  1.95693479
  -1.95569712  5.82729054  5.87125487
  -1.95569712  1.94945674  1.97627984
  -1.95569712  9.70723102 -3.87882987
  -1.95569712  9.68863155 -0.02453146
  -1.95569712  5.83060555 -3.92182790
  -1.95569712  5.86173446  0.02763458
  -1.95569712  5.84313499  3.88193300
  -1.95569712  1.94379619  0.00038789
  -1.95569712  7.77605104 -1.94673872
  -1.95569712  7.77431497  1.94984185
  -1.95569712  3.93732086 -1.97561526
  -1.95569712  3.94142551  1.97002843
  -1.95569712  3.83532177  5.87750628
  -1.95569712  7.72389025 -5.86804054
   0.00000000  9.69425780 -1.96180095
   0.00000000  9.70398007  1.96084855
   0.00000000  5.84638595 -1.95774543
   0.00000000  5.85610938  1.96490408
   0.00000000  5.84205032  5.86768234
   0.00000000  1.93469696  1.97985236
 


--------------------------------------------------------------------------------------------------------


 k-point  1 :   0.0000 0.0000 0.0000  plane waves:    9649
 k-point  2 :   0.2000 0.0000 0.0000  plane waves:    9637
 k-point  3 :   0.4000 0.0000 0.0000  plane waves:    9644
 k-point  4 :   0.0000 0.5000 0.0000  plane waves:    9652
 k-point  5 :   0.2000 0.5000 0.0000  plane waves:    9646
 k-point  6 :   0.4000 0.5000 0.0000  plane waves:    9650
 k-point  7 :   0.0000 0.0000 0.5000  plane waves:    9674
 k-point  8 :   0.2000 0.0000 0.5000  plane waves:    9620
 k-point  9 :   0.4000 0.0000 0.5000  plane waves:    9628
 k-point 10 :   0.0000 0.5000 0.5000  plane waves:    9632
 k-point 11 :   0.2000 0.5000 0.5000  plane waves:    9622
 k-point 12 :   0.4000 0.5000 0.5000  plane waves:    9644

 maximum and minimum number of plane-waves per node :       990      948

 maximum number of plane-waves:      9674
 maximum index in each direction: 
   IXMAX=    7   IYMAX=   16   IZMAX=   20
   IXMIN=   -7   IYMIN=  -16   IZMIN=  -21


 real space projection operators:
  total allocation   :      22061.30 KBytes
  max/ min on nodes  :       2291.09       2159.33


 parallel 3D FFT for wavefunctions:
    minimum data exchange during FFTs selected (reduces bandwidth)
 parallel 3D FFT for charge:
    minimum data exchange during FFTs selected (reduces bandwidth)


 total amount of memory used by VASP MPI-rank0    77848. kBytes
=======================================================================

   base      :      30000. kBytes
   nonlr-proj:       7387. kBytes
   fftplans  :       2934. kBytes
   grid      :       8258. kBytes
   one-center:        294. kBytes
   wavefun   :      28975. kBytes
 
     INWAV:  cpu time    0.0000: real time    0.0000
 Broyden mixing: mesh for mixing (old mesh)
   NGX = 15   NGY = 33   NGZ = 41
  (NGX  = 60   NGY  =140   NGZ  =168)
  gives a total of  20295 points

 initial charge density was supplied:
 charge density of overlapping atoms calculated
 number of electron     222.0000000 magnetization      22.0000000
 keeping initial charge density in first step


--------------------------------------------------------------------------------------------------------


 Maximum index for non-local projection operator          888
 Maximum index for augmentation-charges         1066 (set IRDMAX)


--------------------------------------------------------------------------------------------------------


 First call to EWALD:  gamma=   0.250
 Maximum number of real-space cells 5x 2x 2
 Maximum number of reciprocal cells 2x 3x 4

    FEWALD:  cpu time    0.0018: real time    0.0018


--------------------------------------- Iteration      1(   1)  ---------------------------------------


    POTLOK:  cpu time    0.0896: real time    0.0918
    SETDIJ:  cpu time    0.0150: real time    0.0151
atom =   1  type =  1  l = 0
 
 onsite density matrix
 
spin component  1
 
  1.0989
 
spin component  2
 
  1.0989
 
 occupancies and eigenvectors
 
  o =  1.0989  v =  1.0000  0.0000      0.0000  0.0000
  o =  1.0989  v =  0.0000  1.0000      0.0000  0.0000
atom =   2  type =  1  l = 0
 
 onsite density matrix
 
spin component  1
 
  1.0989
 
spin component  2
 
  1.0989
 
 occupancies and eigenvectors
 
  o =  1.0989  v =  1.0000  0.0000      0.0000  0.0000
  o =  1.0989  v =  0.0000  1.0000      0.0000  0.0000
atom =   3  type =  1  l = 0
 
 onsite density matrix
 
spin component  1
 
  1.0989
 
spin component  2
 
  1.0989
 
 occupancies and eigenvectors
 
  o =  1.0989  v =  1.0000  0.0000      0.0000  0.0000
  o =  1.0989  v =  0.0000  1.0000      0.0000  0.0000
atom =   4  type =  1  l = 0
 
 onsite density matrix
 
spin component  1
 
  1.0989
 
spin component  2
 
  1.0989
 
 occupancies and eigenvectors
 
  o =  1.0989  v =  1.0000  0.0000      0.0000  0.0000
  o =  1.0989  v =  0.0000  1.0000      0.0000  0.0000
atom =   5  type =  1  l = 0
 
 onsite density matrix
 
spin component  1
 
  1.0989
 
spin component  2
 
  1.0989
 
 occupancies and eigenvectors
 
  o =  1.0989  v =  1.0000  0.0000      0.0000  0.0000
  o =  1.0989  v =  0.0000  1.0000      0.0000  0.0000
atom =   6  type =  1  l = 0
 
 onsite density matrix
 
spin component  1
 
  1.0989
 
spin component  2
 
  1.0989
 
 occupancies and eigenvectors
 
  o =  1.0989  v =  1.0000  0.0000      0.0000  0.0000
  o =  1.0989  v =  0.0000  1.0000      0.0000  0.0000
atom =   7  type =  2  l = 2
 
 onsite density matrix
 
spin component  1
 
  0.8272  0.0000  0.0000  0.0000  0.0000
  0.0000  0.8272  0.0000  0.0000  0.0000
  0.0000  0.0000  0.8272  0.0000  0.0000
  0.0000  0.0000  0.0000  0.8272  0.0000
  0.0000  0.0000  0.0000  0.0000  0.8272
 
spin component  2
 
  0.2256  0.0000  0.0000  0.0000  0.0000
  0.0000  0.2256  0.0000  0.0000  0.0000
  0.0000  0.0000  0.2256  0.0000  0.0000
  0.0000  0.0000  0.0000  0.2256  0.0000
  0.0000  0.0000  0.0000  0.0000  0.2256
 
 occupancies and eigenvectors
 
  o =  0.2256  v =  0.0000  0.0000  0.0000  0.0000  0.0000  0.0000  0.0000  1.0000  0.0000  0.0000      0.0000  0.0000  0.0000  0.0000  0.0000  0.0000  0.0000  0.0000  0.0000  0.0000
  o =  0.2256  v =  0.0000  0.0000  0.0000  0.0000  0.0000  1.0000  0.0000  0.0000  0.0000  0.0000      0.0000  0.0000  0.0000  0.0000  0.0000  0.0000  0.0000  0.0000  0.0000  0.0000
  o =  0.2256  v =  0.0000  0.0000  0.0000  0.0000  0.0000  0.0000  1.0000  0.0000  0.0000  0.0000      0.0000  0.0000  0.0000  0.0000  0.0000  0.0000  0.0000  0.0000  0.0000  0.0000
  o =  0.2256  v =  0.0000  0.0000  0.0000  0.0000  0.0000  0.0000  0.0000  0.0000  1.0000  0.0000      0.0000  0.0000  0.0000  0.0000  0.0000  0.0000  0.0000  0.0000  0.0000  0.0000
  o =  0.2256  v =  0.0000  0.0000  0.0000  0.0000  0.0000  0.0000  0.0000  0.0000  0.0000  1.0000      0.0000  0.0000  0.0000  0.0000  0.0000  0.0000  0.0000  0.0000  0.0000  0.0000
  o =  0.8272  v =  0.0000  1.0000  0.0000  0.0000  0.0000  0.0000  0.0000  0.0000  0.0000  0.0000      0.0000  0.0000  0.0000  0.0000  0.0000  0.0000  0.0000  0.0000  0.0000  0.0000
  o =  0.8272  v =  0.0000  0.0000  1.0000  0.0000  0.0000  0.0000  0.0000  0.0000  0.0000  0.0000      0.0000  0.0000  0.0000  0.0000  0.0000  0.0000  0.0000  0.0000  0.0000  0.0000
  o =  0.8272  v =  1.0000  0.0000  0.0000  0.0000  0.0000  0.0000  0.0000  0.0000  0.0000  0.0000      0.0000  0.0000  0.0000  0.0000  0.0000  0.0000  0.0000  0.0000  0.0000  0.0000
  o =  0.8272  v =  0.0000  0.0000  0.0000  1.0000  0.0000  0.0000  0.0000  0.0000  0.0000  0.0000      0.0000  0.0000  0.0000  0.0000  0.0000  0.0000  0.0000  0.0000  0.0000  0.0000
  o =  0.8272  v =  0.0000  0.0000  0.0000  0.0000  1.0000  0.0000  0.0000  0.0000  0.0000  0.0000      0.0000  0.0000  0.0000  0.0000  0.0000  0.0000  0.0000  0.0000  0.0000  0.0000
atom =   8  type =  2  l = 2
 
 onsite density matrix
 
spin component  1
 
  0.8272  0.0000  0.0000  0.0000  0.0000
  0.0000  0.8272  0.0000  0.0000  0.0000
  0.0000  0.0000  0.8272  0.0000  0.0000
  0.0000  0.0000  0.0000  0.8272  0.0000
  0.0000  0.0000  0.0000  0.0000  0.8272
 
spin component  2
 
  0.2256  0.0000  0.0000  0.0000  0.0000
  0.0000  0.2256  0.0000  0.0000  0.0000
  0.0000  0.0000  0.2256  0.0000  0.0000
  0.0000  0.0000  0.0000  0.2256  0.0000
  0.0000  0.0000  0.0000  0.0000  0.2256
 
 occupancies and eigenvectors
 
  o =  0.2256  v =  0.0000  0.0000  0.0000  0.0000  0.0000  0.0000  0.0000  1.0000  0.0000  0.0000      0.0000  0.0000  0.0000  0.0000  0.0000  0.0000  0.0000  0.0000  0.0000  0.0000
  o =  0.2256  v =  0.0000  0.0000  0.0000  0.0000  0.0000  1.0000  0.0000  0.0000  0.0000  0.0000      0.0000  0.0000  0.0000  0.0000  0.0000  0.0000  0.0000  0.0000  0.0000  0.0000
  o =  0.2256  v =  0.0000  0.0000  0.0000  0.0000  0.0000  0.0000  1.0000  0.0000  0.0000  0.0000      0.0000  0.0000  0.0000  0.0000  0.0000  0.0000  0.0000  0.0000  0.0000  0.0000
  o =  0.2256  v =  0.0000  0.0000  0.0000  0.0000  0.0000  0.0000  0.0000  0.0000  1.0000  0.0000      0.0000  0.0000  0.0000  0.0000  0.0000  0.0000  0.0000  0.0000  0.0000  0.0000
  o =  0.2256  v =  0.0000  0.0000  0.0000  0.0000  0.0000  0.0000  0.0000  0.0000  0.0000  1.0000      0.0000  0.0000  0.0000  0.0000  0.0000  0.0000  0.0000  0.0000  0.0000  0.0000
  o =  0.8272  v =  0.0000  1.0000  0.0000  0.0000  0.0000  0.0000  0.0000  0.0000  0.0000  0.0000      0.0000  0.0000  0.0000  0.0000  0.0000  0.0000  0.0000  0.0000  0.0000  0.0000
  o =  0.8272  v =  0.0000  0.0000  1.0000  0.0000  0.0000  0.0000  0.0000  0.0000  0.0000  0.0000      0.0000  0.0000  0.0000  0.0000  0.0000  0.0000  0.0000  0.0000  0.0000  0.0000
  o =  0.8272  v =  1.0000  0.0000  0.0000  0.0000  0.0000  0.0000  0.0000  0.0000  0.0000  0.0000      0.0000  0.0000  0.0000  0.0000  0.0000  0.0000  0.0000  0.0000  0.0000  0.0000
  o =  0.8272  v =  0.0000  0.0000  0.0000  1.0000  0.0000  0.0000  0.0000  0.0000  0.0000  0.0000      0.0000  0.0000  0.0000  0.0000  0.0000  0.0000  0.0000  0.0000  0.0000  0.0000
  o =  0.8272  v =  0.0000  0.0000  0.0000  0.0000  1.0000  0.0000  0.0000  0.0000  0.0000  0.0000      0.0000  0.0000  0.0000  0.0000  0.0000  0.0000  0.0000  0.0000  0.0000  0.0000
atom =   9  type =  2  l = 2
 
 onsite density matrix
 
spin component  1
 
  0.8272  0.0000  0.0000  0.0000  0.0000
  0.0000  0.8272  0.0000  0.0000  0.0000
  0.0000  0.0000  0.8272  0.0000  0.0000
  0.0000  0.0000  0.0000  0.8272  0.0000
  0.0000  0.0000  0.0000  0.0000  0.8272
 
spin component  2
 
  0.2256  0.0000  0.0000  0.0000  0.0000
  0.0000  0.2256  0.0000  0.0000  0.0000
  0.0000  0.0000  0.2256  0.0000  0.0000
  0.0000  0.0000  0.0000  0.2256  0.0000
  0.0000  0.0000  0.0000  0.0000  0.2256
 
 occupancies and eigenvectors
 
  o =  0.2256  v =  0.0000  0.0000  0.0000  0.0000  0.0000  0.0000  0.0000  1.0000  0.0000  0.0000      0.0000  0.0000  0.0000  0.0000  0.0000  0.0000  0.0000  0.0000  0.0000  0.0000
  o =  0.2256  v =  0.0000  0.0000  0.0000  0.0000  0.0000  1.0000  0.0000  0.0000  0.0000  0.0000      0.0000  0.0000  0.0000  0.0000  0.0000  0.0000  0.0000  0.0000  0.0000  0.0000
  o =  0.2256  v =  0.0000  0.0000  0.0000  0.0000  0.0000  0.0000  1.0000  0.0000  0.0000  0.0000      0.0000  0.0000  0.0000  0.0000  0.0000  0.0000  0.0000  0.0000  0.0000  0.0000
  o =  0.2256  v =  0.0000  0.0000  0.0000  0.0000  0.0000  0.0000  0.0000  0.0000  1.0000  0.0000      0.0000  0.0000  0.0000  0.0000  0.0000  0.0000  0.0000  0.0000  0.0000  0.0000
  o =  0.2256  v =  0.0000  0.0000  0.0000  0.0000  0.0000  0.0000  0.0000  0.0000  0.0000  1.0000      0.0000  0.0000  0.0000  0.0000  0.0000  0.0000  0.0000  0.0000  0.0000  0.0000
  o =  0.8272  v =  0.0000  1.0000  0.0000  0.0000  0.0000  0.0000  0.0000  0.0000  0.0000  0.0000      0.0000  0.0000  0.0000  0.0000  0.0000  0.0000  0.0000  0.0000  0.0000  0.0000
  o =  0.8272  v =  0.0000  0.0000  1.0000  0.0000  0.0000  0.0000  0.0000  0.0000  0.0000  0.0000      0.0000  0.0000  0.0000  0.0000  0.0000  0.0000  0.0000  0.0000  0.0000  0.0000
  o =  0.8272  v =  1.0000  0.0000  0.0000  0.0000  0.0000  0.0000  0.0000  0.0000  0.0000  0.0000      0.0000  0.0000  0.0000  0.0000  0.0000  0.0000  0.0000  0.0000  0.0000  0.0000
  o =  0.8272  v =  0.0000  0.0000  0.0000  1.0000  0.0000  0.0000  0.0000  0.0000  0.0000  0.0000      0.0000  0.0000  0.0000  0.0000  0.0000  0.0000  0.0000  0.0000  0.0000  0.0000
  o =  0.8272  v =  0.0000  0.0000  0.0000  0.0000  1.0000  0.0000  0.0000  0.0000  0.0000  0.0000      0.0000  0.0000  0.0000  0.0000  0.0000  0.0000  0.0000  0.0000  0.0000  0.0000
atom =  10  type =  2  l = 2
 
 onsite density matrix
 
spin component  1
 
  0.8272  0.0000  0.0000  0.0000  0.0000
  0.0000  0.8272  0.0000  0.0000  0.0000
  0.0000  0.0000  0.8272  0.0000  0.0000
  0.0000  0.0000  0.0000  0.8272  0.0000
  0.0000  0.0000  0.0000  0.0000  0.8272
 
spin component  2
 
  0.2256  0.0000  0.0000  0.0000  0.0000
  0.0000  0.2256  0.0000  0.0000  0.0000
  0.0000  0.0000  0.2256  0.0000  0.0000
  0.0000  0.0000  0.0000  0.2256  0.0000
  0.0000  0.0000  0.0000  0.0000  0.2256
 
 occupancies and eigenvectors
 
  o =  0.2256  v =  0.0000  0.0000  0.0000  0.0000  0.0000  0.0000  0.0000  1.0000  0.0000  0.0000      0.0000  0.0000  0.0000  0.0000  0.0000  0.0000  0.0000  0.0000  0.0000  0.0000
  o =  0.2256  v =  0.0000  0.0000  0.0000  0.0000  0.0000  1.0000  0.0000  0.0000  0.0000  0.0000      0.0000  0.0000  0.0000  0.0000  0.0000  0.0000  0.0000  0.0000  0.0000  0.0000
  o =  0.2256  v =  0.0000  0.0000  0.0000  0.0000  0.0000  0.0000  1.0000  0.0000  0.0000  0.0000      0.0000  0.0000  0.0000  0.0000  0.0000  0.0000  0.0000  0.0000  0.0000  0.0000
  o =  0.2256  v =  0.0000  0.0000  0.0000  0.0000  0.0000  0.0000  0.0000  0.0000  1.0000  0.0000      0.0000  0.0000  0.0000  0.0000  0.0000  0.0000  0.0000  0.0000  0.0000  0.0000
  o =  0.2256  v =  0.0000  0.0000  0.0000  0.0000  0.0000  0.0000  0.0000  0.0000  0.0000  1.0000      0.0000  0.0000  0.0000  0.0000  0.0000  0.0000  0.0000  0.0000  0.0000  0.0000
  o =  0.8272  v =  0.0000  1.0000  0.0000  0.0000  0.0000  0.0000  0.0000  0.0000  0.0000  0.0000      0.0000  0.0000  0.0000  0.0000  0.0000  0.0000  0.0000  0.0000  0.0000  0.0000
  o =  0.8272  v =  0.0000  0.0000  1.0000  0.0000  0.0000  0.0000  0.0000  0.0000  0.0000  0.0000      0.0000  0.0000  0.0000  0.0000  0.0000  0.0000  0.0000  0.0000  0.0000  0.0000
  o =  0.8272  v =  1.0000  0.0000  0.0000  0.0000  0.0000  0.0000  0.0000  0.0000  0.0000  0.0000      0.0000  0.0000  0.0000  0.0000  0.0000  0.0000  0.0000  0.0000  0.0000  0.0000
  o =  0.8272  v =  0.0000  0.0000  0.0000  1.0000  0.0000  0.0000  0.0000  0.0000  0.0000  0.0000      0.0000  0.0000  0.0000  0.0000  0.0000  0.0000  0.0000  0.0000  0.0000  0.0000
  o =  0.8272  v =  0.0000  0.0000  0.0000  0.0000  1.0000  0.0000  0.0000  0.0000  0.0000  0.0000      0.0000  0.0000  0.0000  0.0000  0.0000  0.0000  0.0000  0.0000  0.0000  0.0000
atom =  11  type =  3  l = 2
 
 onsite density matrix
 
spin component  1
 
  1.1008  0.0000  0.0000  0.0000  0.0000
  0.0000  1.1008  0.0000  0.0000  0.0000
  0.0000  0.0000  1.1008  0.0000  0.0000
  0.0000  0.0000  0.0000  1.1008  0.0000
  0.0000  0.0000  0.0000  0.0000  1.1008
 
spin component  2
 
  0.5927  0.0000  0.0000  0.0000  0.0000
  0.0000  0.5927  0.0000  0.0000  0.0000
  0.0000  0.0000  0.5927  0.0000  0.0000
  0.0000  0.0000  0.0000  0.5927  0.0000
  0.0000  0.0000  0.0000  0.0000  0.5927
 
 occupancies and eigenvectors
 
  o =  0.5927  v =  0.0000  0.0000  0.0000  0.0000  0.0000  1.0000  0.0000  0.0000  0.0000  0.0000      0.0000  0.0000  0.0000  0.0000  0.0000  0.0000  0.0000  0.0000  0.0000  0.0000
  o =  0.5927  v =  0.0000  0.0000  0.0000  0.0000  0.0000  0.0000  1.0000  0.0000  0.0000  0.0000      0.0000  0.0000  0.0000  0.0000  0.0000  0.0000  0.0000  0.0000  0.0000  0.0000
  o =  0.5927  v =  0.0000  0.0000  0.0000  0.0000  0.0000  0.0000  0.0000  1.0000  0.0000  0.0000      0.0000  0.0000  0.0000  0.0000  0.0000  0.0000  0.0000  0.0000  0.0000  0.0000
  o =  0.5927  v =  0.0000  0.0000  0.0000  0.0000  0.0000  0.0000  0.0000  0.0000  1.0000  0.0000      0.0000  0.0000  0.0000  0.0000  0.0000  0.0000  0.0000  0.0000  0.0000  0.0000
  o =  0.5927  v =  0.0000  0.0000  0.0000  0.0000  0.0000  0.0000  0.0000  0.0000  0.0000  1.0000      0.0000  0.0000  0.0000  0.0000  0.0000  0.0000  0.0000  0.0000  0.0000  0.0000
  o =  1.1008  v =  1.0000  0.0000  0.0000  0.0000  0.0000  0.0000  0.0000  0.0000  0.0000  0.0000      0.0000  0.0000  0.0000  0.0000  0.0000  0.0000  0.0000  0.0000  0.0000  0.0000
  o =  1.1008  v =  0.0000  1.0000  0.0000  0.0000  0.0000  0.0000  0.0000  0.0000  0.0000  0.0000      0.0000  0.0000  0.0000  0.0000  0.0000  0.0000  0.0000  0.0000  0.0000  0.0000
  o =  1.1008  v =  0.0000  0.0000  1.0000  0.0000  0.0000  0.0000  0.0000  0.0000  0.0000  0.0000      0.0000  0.0000  0.0000  0.0000  0.0000  0.0000  0.0000  0.0000  0.0000  0.0000
  o =  1.1008  v =  0.0000  0.0000  0.0000  1.0000  0.0000  0.0000  0.0000  0.0000  0.0000  0.0000      0.0000  0.0000  0.0000  0.0000  0.0000  0.0000  0.0000  0.0000  0.0000  0.0000
  o =  1.1008  v =  0.0000  0.0000  0.0000  0.0000  1.0000  0.0000  0.0000  0.0000  0.0000  0.0000      0.0000  0.0000  0.0000  0.0000  0.0000  0.0000  0.0000  0.0000  0.0000  0.0000
atom =  12  type =  3  l = 2
 
 onsite density matrix
 
spin component  1
 
  1.1008  0.0000  0.0000  0.0000  0.0000
  0.0000  1.1008  0.0000  0.0000  0.0000
  0.0000  0.0000  1.1008  0.0000  0.0000
  0.0000  0.0000  0.0000  1.1008  0.0000
  0.0000  0.0000  0.0000  0.0000  1.1008
 
spin component  2
 
  0.5927  0.0000  0.0000  0.0000  0.0000
  0.0000  0.5927  0.0000  0.0000  0.0000
  0.0000  0.0000  0.5927  0.0000  0.0000
  0.0000  0.0000  0.0000  0.5927  0.0000
  0.0000  0.0000  0.0000  0.0000  0.5927
 
 occupancies and eigenvectors
 
  o =  0.5927  v =  0.0000  0.0000  0.0000  0.0000  0.0000  1.0000  0.0000  0.0000  0.0000  0.0000      0.0000  0.0000  0.0000  0.0000  0.0000  0.0000  0.0000  0.0000  0.0000  0.0000
  o =  0.5927  v =  0.0000  0.0000  0.0000  0.0000  0.0000  0.0000  1.0000  0.0000  0.0000  0.0000      0.0000  0.0000  0.0000  0.0000  0.0000  0.0000  0.0000  0.0000  0.0000  0.0000
  o =  0.5927  v =  0.0000  0.0000  0.0000  0.0000  0.0000  0.0000  0.0000  1.0000  0.0000  0.0000      0.0000  0.0000  0.0000  0.0000  0.0000  0.0000  0.0000  0.0000  0.0000  0.0000
  o =  0.5927  v =  0.0000  0.0000  0.0000  0.0000  0.0000  0.0000  0.0000  0.0000  1.0000  0.0000      0.0000  0.0000  0.0000  0.0000  0.0000  0.0000  0.0000  0.0000  0.0000  0.0000
  o =  0.5927  v =  0.0000  0.0000  0.0000  0.0000  0.0000  0.0000  0.0000  0.0000  0.0000  1.0000      0.0000  0.0000  0.0000  0.0000  0.0000  0.0000  0.0000  0.0000  0.0000  0.0000
  o =  1.1008  v =  1.0000  0.0000  0.0000  0.0000  0.0000  0.0000  0.0000  0.0000  0.0000  0.0000      0.0000  0.0000  0.0000  0.0000  0.0000  0.0000  0.0000  0.0000  0.0000  0.0000
  o =  1.1008  v =  0.0000  1.0000  0.0000  0.0000  0.0000  0.0000  0.0000  0.0000  0.0000  0.0000      0.0000  0.0000  0.0000  0.0000  0.0000  0.0000  0.0000  0.0000  0.0000  0.0000
  o =  1.1008  v =  0.0000  0.0000  1.0000  0.0000  0.0000  0.0000  0.0000  0.0000  0.0000  0.0000      0.0000  0.0000  0.0000  0.0000  0.0000  0.0000  0.0000  0.0000  0.0000  0.0000
  o =  1.1008  v =  0.0000  0.0000  0.0000  1.0000  0.0000  0.0000  0.0000  0.0000  0.0000  0.0000      0.0000  0.0000  0.0000  0.0000  0.0000  0.0000  0.0000  0.0000  0.0000  0.0000
  o =  1.1008  v =  0.0000  0.0000  0.0000  0.0000  1.0000  0.0000  0.0000  0.0000  0.0000  0.0000      0.0000  0.0000  0.0000  0.0000  0.0000  0.0000  0.0000  0.0000  0.0000  0.0000
atom =  13  type =  4  l = 0
 
 onsite density matrix
 
spin component  1
 
  0.8190
 
spin component  2
 
  0.8190
 
 occupancies and eigenvectors
 
  o =  0.8190  v =  1.0000  0.0000      0.0000  0.0000
  o =  0.8190  v =  0.0000  1.0000      0.0000  0.0000
atom =  14  type =  4  l = 0
 
 onsite density matrix
 
spin component  1
 
  0.8190
 
spin component  2
 
  0.8190
 
 occupancies and eigenvectors
 
  o =  0.8190  v =  1.0000  0.0000      0.0000  0.0000
  o =  0.8190  v =  0.0000  1.0000      0.0000  0.0000
atom =  15  type =  4  l = 0
 
 onsite density matrix
 
spin component  1
 
  0.8190
 
spin component  2
 
  0.8190
 
 occupancies and eigenvectors
 
  o =  0.8190  v =  1.0000  0.0000      0.0000  0.0000
  o =  0.8190  v =  0.0000  1.0000      0.0000  0.0000
atom =  16  type =  4  l = 0
 
 onsite density matrix
 
spin component  1
 
  0.8190
 
spin component  2
 
  0.8190
 
 occupancies and eigenvectors
 
  o =  0.8190  v =  1.0000  0.0000      0.0000  0.0000
  o =  0.8190  v =  0.0000  1.0000      0.0000  0.0000
atom =  17  type =  4  l = 0
 
 onsite density matrix
 
spin component  1
 
  0.8190
 
spin component  2
 
  0.8190
 
 occupancies and eigenvectors
 
  o =  0.8190  v =  1.0000  0.0000      0.0000  0.0000
  o =  0.8190  v =  0.0000  1.0000      0.0000  0.0000
atom =  18  type =  4  l = 0
 
 onsite density matrix
 
spin component  1
 
  0.8190
 
spin component  2
 
  0.8190
 
 occupancies and eigenvectors
 
  o =  0.8190  v =  1.0000  0.0000      0.0000  0.0000
  o =  0.8190  v =  0.0000  1.0000      0.0000  0.0000
atom =  19  type =  4  l = 0
 
 onsite density matrix
 
spin component  1
 
  0.8190
 
spin component  2
 
  0.8190
 
 occupancies and eigenvectors
 
  o =  0.8190  v =  1.0000  0.0000      0.0000  0.0000
  o =  0.8190  v =  0.0000  1.0000      0.0000  0.0000
atom =  20  type =  4  l = 0
 
 onsite density matrix
 
spin component  1
 
  0.8190
 
spin component  2
 
  0.8190
 
 occupancies and eigenvectors
 
  o =  0.8190  v =  1.0000  0.0000      0.0000  0.0000
  o =  0.8190  v =  0.0000  1.0000      0.0000  0.0000
atom =  21  type =  4  l = 0
 
 onsite density matrix
 
spin component  1
 
  0.8190
 
spin component  2
 
  0.8190
 
 occupancies and eigenvectors
 
  o =  0.8190  v =  1.0000  0.0000      0.0000  0.0000
  o =  0.8190  v =  0.0000  1.0000      0.0000  0.0000
atom =  22  type =  4  l = 0
 
 onsite density matrix
 
spin component  1
 
  0.8190
 
spin component  2
 
  0.8190
 
 occupancies and eigenvectors
 
  o =  0.8190  v =  1.0000  0.0000      0.0000  0.0000
  o =  0.8190  v =  0.0000  1.0000      0.0000  0.0000
atom =  23  type =  4  l = 0
 
 onsite density matrix
 
spin component  1
 
  0.8190
 
spin component  2
 
  0.8190
 
 occupancies and eigenvectors
 
  o =  0.8190  v =  1.0000  0.0000      0.0000  0.0000
  o =  0.8190  v =  0.0000  1.0000      0.0000  0.0000
atom =  24  type =  4  l = 0
 
 onsite density matrix
 
spin component  1
 
  0.8190
 
spin component  2
 
  0.8190
 
 occupancies and eigenvectors
 
  o =  0.8190  v =  1.0000  0.0000      0.0000  0.0000
  o =  0.8190  v =  0.0000  1.0000      0.0000  0.0000
atom =  25  type =  4  l = 0
 
 onsite density matrix
 
spin component  1
 
  0.8190
 
spin component  2
 
  0.8190
 
 occupancies and eigenvectors
 
  o =  0.8190  v =  1.0000  0.0000      0.0000  0.0000
  o =  0.8190  v =  0.0000  1.0000      0.0000  0.0000
atom =  26  type =  4  l = 0
 
 onsite density matrix
 
spin component  1
 
  0.8190
 
spin component  2
 
  0.8190
 
 occupancies and eigenvectors
 
  o =  0.8190  v =  1.0000  0.0000      0.0000  0.0000
  o =  0.8190  v =  0.0000  1.0000      0.0000  0.0000
atom =  27  type =  4  l = 0
 
 onsite density matrix
 
spin component  1
 
  0.8190
 
spin component  2
 
  0.8190
 
 occupancies and eigenvectors
 
  o =  0.8190  v =  1.0000  0.0000      0.0000  0.0000
  o =  0.8190  v =  0.0000  1.0000      0.0000  0.0000
atom =  28  type =  4  l = 0
 
 onsite density matrix
 
spin component  1
 
  0.8190
 
spin component  2
 
  0.8190
 
 occupancies and eigenvectors
 
  o =  0.8190  v =  1.0000  0.0000      0.0000  0.0000
  o =  0.8190  v =  0.0000  1.0000      0.0000  0.0000
atom =  29  type =  4  l = 0
 
 onsite density matrix
 
spin component  1
 
  0.8190
 
spin component  2
 
  0.8190
 
 occupancies and eigenvectors
 
  o =  0.8190  v =  1.0000  0.0000      0.0000  0.0000
  o =  0.8190  v =  0.0000  1.0000      0.0000  0.0000
atom =  30  type =  4  l = 0
 
 onsite density matrix
 
spin component  1
 
  0.8190
 
spin component  2
 
  0.8190
 
 occupancies and eigenvectors
 
  o =  0.8190  v =  1.0000  0.0000      0.0000  0.0000
  o =  0.8190  v =  0.0000  1.0000      0.0000  0.0000
     EDDAV:  cpu time    4.3511: real time    4.3681
 BZINTS: Fermi energy: 31.337595;222.000000 electrons
         Band energy:3288.786047;  BLOECHL correction: -0.115116
       DOS:  cpu time    0.0255: real time    0.0291
    --------------------------------------------
      LOOP:  cpu time    4.4811: real time    4.5041

 eigenvalue-minimisations  :  7408
 total energy-change (2. order) : 0.3551322E+04  (-0.7762318E+04)
 number of electron     222.0000000 magnetization      22.0000000
 augmentation part      222.0000000 magnetization      22.0000000

 Free energy of the ion-electron system (eV)
  ---------------------------------------------------
  alpha Z        PSCENC =       969.26002565
  Ewald energy   TEWEN  =    -14977.56000885
  -Hartree energ DENC   =     -3214.60975469
  -exchange      EXHF   =         0.00000000
  -V(xc)+E(xc)   XCENC  =       710.17342922
  PAW double counting   =     13644.53670636   -13669.90867429
  entropy T*S    EENTRO =         0.00000000
  eigenvalues    EBANDS =      3288.78604715
  atomic energy  EATOM  =     16800.64461370
  Solvation  Ediel_sol  =         0.00000000
  ---------------------------------------------------
  free energy    TOTEN  =      3551.32238425 eV

  energy without entropy =     3551.32238425  energy(sigma->0) =     3551.32238425


--------------------------------------------------------------------------------------------------------




--------------------------------------- Iteration      1(   2)  ---------------------------------------


     EDDAV:  cpu time    4.5286: real time    4.5454
 BZINTS: Fermi energy: 16.357832;222.000000 electrons
         Band energy: 970.933412;  BLOECHL correction: -0.043587
       DOS:  cpu time    0.0291: real time    0.0291
    --------------------------------------------
      LOOP:  cpu time    4.5576: real time    4.5746

 eigenvalue-minimisations  :  7776
 total energy-change (2. order) :-0.2317853E+04  (-0.2091156E+04)
 number of electron     222.0000000 magnetization      22.0000000
 augmentation part      222.0000000 magnetization      22.0000000

 Free energy of the ion-electron system (eV)
  ---------------------------------------------------
  alpha Z        PSCENC =       969.26002565
  Ewald energy   TEWEN  =    -14977.56000885
  -Hartree energ DENC   =     -3214.60975469
  -exchange      EXHF   =         0.00000000
  -V(xc)+E(xc)   XCENC  =       710.17342922
  PAW double counting   =     13644.53670636   -13669.90867429
  entropy T*S    EENTRO =         0.00000000
  eigenvalues    EBANDS =       970.93341188
  atomic energy  EATOM  =     16800.64461370
  Solvation  Ediel_sol  =         0.00000000
  ---------------------------------------------------
  free energy    TOTEN  =      1233.46974898 eV

  energy without entropy =     1233.46974898  energy(sigma->0) =     1233.46974898


--------------------------------------------------------------------------------------------------------




--------------------------------------- Iteration      1(   3)  ---------------------------------------


     EDDAV:  cpu time    4.6216: real time    4.6401
 BZINTS: Fermi energy: 11.992594;222.000000 electrons
         Band energy:   6.646331;  BLOECHL correction: -0.040130
       DOS:  cpu time    0.0301: real time    0.0302
    --------------------------------------------
      LOOP:  cpu time    4.6517: real time    4.6703

 eigenvalue-minimisations  :  7976
 total energy-change (2. order) :-0.9642871E+03  (-0.8703249E+03)
 number of electron     222.0000000 magnetization      22.0000000
 augmentation part      222.0000000 magnetization      22.0000000

 Free energy of the ion-electron system (eV)
  ---------------------------------------------------
  alpha Z        PSCENC =       969.26002565
  Ewald energy   TEWEN  =    -14977.56000885
  -Hartree energ DENC   =     -3214.60975469
  -exchange      EXHF   =         0.00000000
  -V(xc)+E(xc)   XCENC  =       710.17342922
  PAW double counting   =     13644.53670636   -13669.90867429
  entropy T*S    EENTRO =         0.00000000
  eigenvalues    EBANDS =         6.64633099
  atomic energy  EATOM  =     16800.64461370
  Solvation  Ediel_sol  =         0.00000000
  ---------------------------------------------------
  free energy    TOTEN  =       269.18266809 eV

  energy without entropy =      269.18266809  energy(sigma->0) =      269.18266809


--------------------------------------------------------------------------------------------------------




--------------------------------------- Iteration      1(   4)  ---------------------------------------


     EDDAV:  cpu time    6.0659: real time    6.0885
 BZINTS: Fermi energy: 11.266798;222.000000 electrons
         Band energy:-421.916849;  BLOECHL correction: -0.012381
       DOS:  cpu time    0.0298: real time    0.0303
    --------------------------------------------
      LOOP:  cpu time    6.0957: real time    6.1188

 eigenvalue-minimisations  : 11136
 total energy-change (2. order) :-0.4285632E+03  (-0.4030434E+03)
 number of electron     222.0000000 magnetization      22.0000000
 augmentation part      222.0000000 magnetization      22.0000000

 Free energy of the ion-electron system (eV)
  ---------------------------------------------------
  alpha Z        PSCENC =       969.26002565
  Ewald energy   TEWEN  =    -14977.56000885
  -Hartree energ DENC   =     -3214.60975469
  -exchange      EXHF   =         0.00000000
  -V(xc)+E(xc)   XCENC  =       710.17342922
  PAW double counting   =     13644.53670636   -13669.90867429
  entropy T*S    EENTRO =         0.00000000
  eigenvalues    EBANDS =      -421.91684914
  atomic energy  EATOM  =     16800.64461370
  Solvation  Ediel_sol  =         0.00000000
  ---------------------------------------------------
  free energy    TOTEN  =      -159.38051204 eV

  energy without entropy =     -159.38051204  energy(sigma->0) =     -159.38051204


--------------------------------------------------------------------------------------------------------




--------------------------------------- Iteration      1(   5)  ---------------------------------------


     EDDAV:  cpu time    6.6853: real time    6.7117
 BZINTS: Fermi energy: 10.868486;222.000000 electrons
         Band energy:-517.363848;  BLOECHL correction: -0.087483
       DOS:  cpu time    0.0240: real time    0.0241
    CHARGE:  cpu time    0.1906: real time    0.1913
    MIXING:  cpu time    0.0037: real time    0.0038
    --------------------------------------------
      LOOP:  cpu time    6.9036: real time    6.9309

 eigenvalue-minimisations  : 12504
 total energy-change (2. order) :-0.9544700E+02  (-0.9185685E+02)
 number of electron     222.0000024 magnetization      20.0158265
 augmentation part       26.0038767 magnetization      14.1260278

 Broyden mixing:
  rms(total) = 0.71544E+01    rms(broyden)= 0.71539E+01
  rms(prec ) = 0.82316E+01
  weight for this iteration     100.00

 Free energy of the ion-electron system (eV)
  ---------------------------------------------------
  alpha Z        PSCENC =       969.26002565
  Ewald energy   TEWEN  =    -14977.56000885
  -Hartree energ DENC   =     -3214.60975469
  -exchange      EXHF   =         0.00000000
  -V(xc)+E(xc)   XCENC  =       710.17342922
  PAW double counting   =     13644.53670636   -13669.90867429
  entropy T*S    EENTRO =         0.00000000
  eigenvalues    EBANDS =      -517.36384768
  atomic energy  EATOM  =     16800.64461370
  Solvation  Ediel_sol  =         0.00000000
  ---------------------------------------------------
  free energy    TOTEN  =      -254.82751058 eV

  energy without entropy =     -254.82751058  energy(sigma->0) =     -254.82751058


--------------------------------------------------------------------------------------------------------




--------------------------------------- Iteration      1(   6)  ---------------------------------------


    POTLOK:  cpu time    0.0877: real time    0.0897
    SETDIJ:  cpu time    0.0135: real time    0.0135
atom =   1  type =  1  l = 0
 
 onsite density matrix
 
spin component  1
 
  1.0556
 
spin component  2
 
  1.0563
 
 occupancies and eigenvectors
 
  o =  1.0556  v =  1.0000  0.0000      0.0000  0.0000
  o =  1.0563  v =  0.0000  1.0000      0.0000  0.0000
atom =   2  type =  1  l = 0
 
 onsite density matrix
 
spin component  1
 
  1.0566
 
spin component  2
 
  1.0568
 
 occupancies and eigenvectors
 
  o =  1.0566  v =  1.0000  0.0000      0.0000  0.0000
  o =  1.0568  v =  0.0000  1.0000      0.0000  0.0000
atom =   3  type =  1  l = 0
 
 onsite density matrix
 
spin component  1
 
  1.0560
 
spin component  2
 
  1.0563
 
 occupancies and eigenvectors
 
  o =  1.0560  v =  1.0000  0.0000      0.0000  0.0000
  o =  1.0563  v =  0.0000  1.0000      0.0000  0.0000
atom =   4  type =  1  l = 0
 
 onsite density matrix
 
spin component  1
 
  1.0559
 
spin component  2
 
  1.0563
 
 occupancies and eigenvectors
 
  o =  1.0559  v =  1.0000  0.0000      0.0000  0.0000
  o =  1.0563  v =  0.0000  1.0000      0.0000  0.0000
atom =   5  type =  1  l = 0
 
 onsite density matrix
 
spin component  1
 
  1.0560
 
spin component  2
 
  1.0563
 
 occupancies and eigenvectors
 
  o =  1.0560  v =  1.0000  0.0000      0.0000  0.0000
  o =  1.0563  v =  0.0000  1.0000      0.0000  0.0000
atom =   6  type =  1  l = 0
 
 onsite density matrix
 
spin component  1
 
  1.0566
 
spin component  2
 
  1.0568
 
 occupancies and eigenvectors
 
  o =  1.0566  v =  1.0000  0.0000      0.0000  0.0000
  o =  1.0568  v =  0.0000  1.0000      0.0000  0.0000
atom =   7  type =  2  l = 2
 
 onsite density matrix
 
spin component  1
 
  0.9363  0.0000  0.0000 -0.0023  0.0000
  0.0000  0.9307  0.0007  0.0000 -0.0048
  0.0000  0.0007  0.4262  0.0000 -0.0407
 -0.0023  0.0000  0.0000  0.9449  0.0000
  0.0000 -0.0048 -0.0407  0.0000  0.3900
 
spin component  2
 
  0.0403  0.0000  0.0000  0.0021  0.0000
  0.0000  0.0440  0.0000  0.0000  0.0022
  0.0000  0.0000  0.3934  0.0000  0.0269
  0.0021  0.0000  0.0000  0.0314  0.0000
  0.0000  0.0022  0.0269  0.0000  0.4218
 
 occupancies and eigenvectors
 
  o =  0.0309  v =  0.0000  0.0000  0.0000  0.0000  0.0000 -0.2158  0.0000  0.0000  0.9764  0.0000      0.0000  0.0000  0.0000  0.0000  0.0000  0.0000  0.0000  0.0000  0.0000  0.0000
  o =  0.0408  v =  0.0000  0.0000  0.0000  0.0000  0.0000 -0.9764  0.0000  0.0000 -0.2158  0.0000      0.0000  0.0000  0.0000  0.0000  0.0000  0.0000  0.0000  0.0000  0.0000  0.0000
  o =  0.0440  v =  0.0000  0.0000  0.0000  0.0000  0.0000  0.0000 -1.0000 -0.0004  0.0000  0.0058      0.0000  0.0000  0.0000  0.0000  0.0000  0.0000  0.0000  0.0000  0.0000  0.0000
  o =  0.3635  v =  0.0000 -0.0065 -0.5442  0.0000 -0.8389  0.0000  0.0000  0.0000  0.0000  0.0000      0.0000  0.0000  0.0000  0.0000  0.0000  0.0000  0.0000  0.0000  0.0000  0.0000
  o =  0.3771  v =  0.0000  0.0000  0.0000  0.0000  0.0000  0.0000  0.0034 -0.8562  0.0000  0.5167      0.0000  0.0000  0.0000  0.0000  0.0000  0.0000  0.0000  0.0000  0.0000  0.0000
  o =  0.4380  v =  0.0000  0.0000  0.0000  0.0000  0.0000  0.0000  0.0047  0.5167  0.0000  0.8562      0.0000  0.0000  0.0000  0.0000  0.0000  0.0000  0.0000  0.0000  0.0000  0.0000
  o =  0.4526  v =  0.0000 -0.0067  0.8390  0.0000 -0.5442  0.0000  0.0000  0.0000  0.0000  0.0000      0.0000  0.0000  0.0000  0.0000  0.0000  0.0000  0.0000  0.0000  0.0000  0.0000
  o =  0.9307  v =  0.0000  1.0000  0.0020  0.0000 -0.0091  0.0000  0.0000  0.0000  0.0000  0.0000      0.0000  0.0000  0.0000  0.0000  0.0000  0.0000  0.0000  0.0000  0.0000  0.0000
  o =  0.9357  v = -0.9695  0.0000  0.0000 -0.2451  0.0000  0.0000  0.0000  0.0000  0.0000  0.0000      0.0000  0.0000  0.0000  0.0000  0.0000  0.0000  0.0000  0.0000  0.0000  0.0000
  o =  0.9455  v = -0.2451  0.0000  0.0000  0.9695  0.0000  0.0000  0.0000  0.0000  0.0000  0.0000      0.0000  0.0000  0.0000  0.0000  0.0000  0.0000  0.0000  0.0000  0.0000  0.0000
atom =   8  type =  2  l = 2
 
 onsite density matrix
 
spin component  1
 
  0.9314  0.0000  0.0000  0.0043  0.0000
  0.0000  0.9394  0.0024  0.0000 -0.0099
  0.0000  0.0024  0.3852  0.0000 -0.0380
  0.0043  0.0000  0.0000  0.9427  0.0000
  0.0000 -0.0099 -0.0380  0.0000  0.3976
 
spin component  2
 
  0.0443  0.0000  0.0000 -0.0031  0.0000
  0.0000  0.0424 -0.0017  0.0000  0.0062
  0.0000 -0.0017  0.4264  0.0000  0.0262
 -0.0031  0.0000  0.0000  0.0367  0.0000
  0.0000  0.0062  0.0262  0.0000  0.4177
 
 occupancies and eigenvectors
 
  o =  0.0356  v =  0.0000  0.0000  0.0000  0.0000  0.0000 -0.3343  0.0000  0.0000 -0.9425  0.0000      0.0000  0.0000  0.0000  0.0000  0.0000  0.0000  0.0000  0.0000  0.0000  0.0000
  o =  0.0423  v =  0.0000  0.0000  0.0000  0.0000  0.0000  0.0000  0.9998  0.0056  0.0000 -0.0169      0.0000  0.0000  0.0000  0.0000  0.0000  0.0000  0.0000  0.0000  0.0000  0.0000
  o =  0.0454  v =  0.0000  0.0000  0.0000  0.0000  0.0000 -0.9425  0.0000  0.0000  0.3343  0.0000      0.0000  0.0000  0.0000  0.0000  0.0000  0.0000  0.0000  0.0000  0.0000  0.0000
[...]
  0.000   0.000  -0.000  -0.000   0.000   0.000  -0.000   0.000   0.000   0.000   0.000   0.000   0.000   0.000   0.000   0.000
  0.000   0.000   0.000   0.000   0.000   0.000   0.000   0.000   0.000   0.000   0.000   0.000   0.000   0.000   0.000   0.000
  0.000   0.000  -0.000  -0.000   0.000  -0.000  -0.000   0.000   0.000   0.000   0.000   0.000   0.000   0.000   0.000   0.000
  0.000   0.000   0.000   0.000  -0.000   0.000   0.000  -0.001   0.000   0.000   0.000   0.000   0.000   0.000   0.000   0.000
  0.000   0.000   0.000  -0.000   0.000  -0.001   0.001   0.000   0.000   0.000   0.000   0.000   0.000   0.000   0.000   0.000
  0.000   0.000   0.000   0.000  -0.001   0.000   0.000   0.002   0.000   0.000   0.000   0.000   0.000   0.000   0.000   0.000
  0.000   0.000   0.000  -0.000   0.000  -0.001  -0.000   0.000   0.000   0.000   0.000   0.000   0.000   0.000   0.000   0.000
  0.000   0.000   0.000  -0.000   0.000  -0.000   0.001   0.000   0.000   0.000   0.000   0.000   0.000   0.000   0.000   0.000
  0.000   0.000   0.000   0.000   0.000   0.000   0.000  -0.001   0.000   0.000   0.000   0.000   0.000   0.000   0.000   0.000
  0.000   0.000   0.000   0.000   0.000   0.001   0.000   0.000   0.000   0.000   0.000   0.000   0.000   0.000   0.000   0.000
  0.000   0.000   0.000   0.000  -0.000   0.000   0.000   0.001   0.000   0.000   0.000   0.000   0.000   0.000   0.000   0.000


------------------------ aborting loop because EDIFF is reached ----------------------------------------


 


 total charge     
 
# of ion       s       p       d       f       tot
--------------------------------------------------
    1        1.998   5.696   0.474   0.185   8.353
    2        2.000   5.694   0.485   0.186   8.364
    3        2.000   5.697   0.486   0.188   8.370
    4        1.999   5.699   0.484   0.189   8.371
    5        2.000   5.697   0.486   0.188   8.370
    6        2.000   5.694   0.485   0.186   8.365
    7        0.323   0.486   4.871   0.000   5.680
    8        0.337   0.518   4.865   0.000   5.720
    9        0.323   0.486   4.871   0.000   5.680
   10        0.337   0.518   4.865   0.000   5.720
   11        0.394   0.565   8.330   0.000   9.289
   12        0.394   0.565   8.330   0.000   9.289
   13        1.561   3.453   0.000   0.000   5.014
   14        1.563   3.453   0.000   0.000   5.017
   15        1.567   3.441   0.000   0.000   5.008
   16        1.563   3.454   0.000   0.000   5.017
   17        1.561   3.453   0.000   0.000   5.014
   18        1.555   3.463   0.000   0.000   5.018
   19        1.560   3.465   0.000   0.000   5.025
   20        1.560   3.465   0.000   0.000   5.025
   21        1.562   3.454   0.000   0.000   5.016
   22        1.562   3.451   0.000   0.000   5.013
   23        1.562   3.451   0.000   0.000   5.013
   24        1.562   3.454   0.000   0.000   5.016
   25        1.566   3.449   0.000   0.000   5.015
   26        1.564   3.449   0.000   0.000   5.013
   27        1.564   3.449   0.000   0.000   5.013
   28        1.566   3.449   0.000   0.000   5.015
   29        1.555   3.461   0.000   0.000   5.016
   30        1.555   3.461   0.000   0.000   5.016
--------------------------------------------------
tot         42.214  99.489  39.031   1.122 181.856

 


 magnetization (x)
 
# of ion       s       p       d       f       tot
--------------------------------------------------
    1        0.001   0.001   0.008   0.004   0.014
    2        0.000   0.000   0.005   0.003   0.008
    3        0.001   0.001   0.010   0.005   0.017
    4        0.001   0.001   0.012   0.006   0.021
    5        0.001   0.001   0.010   0.005   0.017
    6        0.000   0.000   0.005   0.003   0.008
    7        0.025   0.023   3.640   0.000   3.688
    8        0.025   0.027   3.497   0.000   3.549
    9        0.025   0.023   3.640   0.000   3.687
   10        0.025   0.027   3.497   0.000   3.549
   11        0.013   0.006   1.699   0.000   1.718
   12        0.013   0.006   1.699   0.000   1.718
   13        0.006  -0.021   0.000   0.000  -0.015
   14        0.005  -0.026   0.000   0.000  -0.021
   15        0.008  -0.064   0.000   0.000  -0.057
   16        0.005  -0.026   0.000   0.000  -0.021
   17        0.006  -0.021   0.000   0.000  -0.015
   18        0.007   0.046   0.000   0.000   0.054
   19        0.001  -0.022   0.000   0.000  -0.021
   20        0.001  -0.022   0.000   0.000  -0.021
   21        0.005  -0.032   0.000   0.000  -0.027
   22        0.005  -0.027   0.000   0.000  -0.022
   23        0.005  -0.027   0.000   0.000  -0.022
   24        0.005  -0.032   0.000   0.000  -0.027
   25        0.006  -0.054   0.000   0.000  -0.048
   26        0.005  -0.048   0.000   0.000  -0.043
   27        0.005  -0.048   0.000   0.000  -0.043
   28        0.006  -0.054   0.000   0.000  -0.048
   29        0.006   0.027   0.000   0.000   0.033
   30        0.006   0.027   0.000   0.000   0.033
--------------------------------------------------
tot          0.223  -0.309  17.721   0.027  17.663

 
    CHARGE:  cpu time    0.1872: real time    0.1876
    FORLOC:  cpu time    0.0134: real time    0.0134
    FORNL :  cpu time    1.2140: real time    1.2187
    STRESS:  cpu time    3.6010: real time    3.6141
    FORCOR:  cpu time    0.0997: real time    0.0999
    FORHAR:  cpu time    0.0216: real time    0.0217
    MIXING:  cpu time    0.0057: real time    0.0057
    OFIELD:  cpu time    0.0001: real time    0.0003

  FORCE on cell =-STRESS in cart. coord.  units (eV):
  Direction    XX          YY          ZZ          XY          YZ          ZX
  --------------------------------------------------------------------------------------
  Alpha Z   969.26003   969.26003   969.26003
  Ewald   -4914.09839 -5066.33434 -4997.18103    -0.00000    24.31081     0.00000
  Hartree  1180.80675  1013.42058  1115.06901     0.00000    27.41379    -0.00000
  E(xc)   -1025.35710 -1025.48782 -1025.47388    -0.00000    -0.02008     0.00000
  Local    -795.63884  -463.96710  -648.22324    -0.00000   -51.52600     0.00000
  n-local   402.45725   404.06406   402.04568     0.00034     0.26945    -0.00087
  augment   345.56720   340.96478   345.21958    -0.00000    -0.00250     0.00000
  Kinetic  3836.05672  3826.57430  3837.10365     0.00093    -0.47898     0.00107
  Fock        0.00000     0.00000     0.00000     0.00000     0.00000     0.00000
  -------------------------------------------------------------------------------------
  Total      -0.94639    -1.50550    -2.18020     0.00000    -0.03352     0.00000
  in kB      -4.23642    -6.73925    -9.75944     0.00000    -0.15006     0.00000
  external pressure =       -6.91 kB  Pullay stress =        0.00 kB


 VOLUME and BASIS-vectors are now :
 -----------------------------------------------------------------------------
  energy-cutoff  :      520.00
  volume of cell :      357.92
      direct lattice vectors                 reciprocal lattice vectors
    -3.911394239  0.000000000  0.000000000    -0.255663311  0.000000000  0.000000000
     0.000000000  3.889156070  7.846758924     0.000000000  0.085725936  0.084952075
     0.000000000  7.773618729 -7.844431579     0.000000000  0.085751370 -0.042501683

  length of vectors
     3.911394239  8.757691508 11.043742796     0.255663311  0.120688820  0.095706272


 FORCES acting on ions
    electron-ion (+dipol)            ewald-force                    non-local-force                 convergence-correction
 -----------------------------------------------------------------------------------------------
   -.217E-14 -.657E-03 0.803E-04   0.607E-14 -.164E-03 -.173E-03   0.000E+00 0.000E+00 -.542E-19   -.123E-13 0.304E-05 0.232E-05
   -.293E-14 -.159E+03 0.126E+02   0.832E-14 0.158E+03 -.125E+02   0.000E+00 0.142E+01 -.189E-01   -.261E-13 0.258E-02 0.225E-02
   0.404E-14 -.976E+02 0.838E+02   0.255E-13 0.969E+02 -.829E+02   0.000E+00 0.693E+00 -.778E+00   -.216E-13 -.501E-03 -.188E-02
   0.742E-14 -.643E-03 0.125E-04   -.273E-13 -.170E-03 -.129E-03   0.000E+00 -.108E-18 0.000E+00   -.178E-13 0.204E-05 0.342E-05
   0.552E-14 0.976E+02 -.838E+02   0.194E-13 -.969E+02 0.829E+02   0.000E+00 -.693E+00 0.778E+00   -.260E-13 0.500E-03 0.188E-02
   0.957E-14 0.159E+03 -.126E+02   0.225E-13 -.158E+03 0.125E+02   0.000E+00 -.142E+01 0.189E-01   -.173E-13 -.259E-02 -.225E-02
   -.621E-13 0.362E+02 0.240E+01   0.102E-13 -.357E+02 -.227E+01   0.000E+00 -.563E+00 -.115E+00   -.676E-14 -.893E-03 0.207E-02
   -.443E-13 0.425E+02 -.332E+02   -.217E-13 -.419E+02 0.331E+02   0.000E+00 -.693E+00 0.129E+00   -.355E-14 0.103E-02 -.867E-03
   -.548E-13 -.362E+02 -.240E+01   -.301E-13 0.357E+02 0.227E+01   0.000E+00 0.563E+00 0.115E+00   -.700E-14 0.891E-03 -.207E-02
   -.734E-13 -.425E+02 0.332E+02   -.886E-14 0.419E+02 -.331E+02   0.000E+00 0.693E+00 -.129E+00   -.816E-14 -.103E-02 0.870E-03
   -.288E-12 -.712E+01 0.379E+02   -.137E-14 0.691E+01 -.369E+02   0.000E+00 0.176E+00 -.108E+01   -.364E-13 -.337E-02 -.617E-02
   -.315E-12 0.712E+01 -.379E+02   0.480E-14 -.691E+01 0.369E+02   0.000E+00 -.176E+00 0.108E+01   -.296E-13 0.337E-02 0.617E-02
   -.118E-12 0.188E+02 -.661E+02   0.263E-13 -.184E+02 0.617E+02   0.000E+00 -.420E+00 0.447E+01   -.907E-14 0.185E-02 -.546E-03
   -.123E-12 0.202E+02 -.204E+02   0.670E-14 -.194E+02 0.225E+02   0.000E+00 -.846E+00 -.207E+01   -.128E-13 0.966E-03 -.218E-02
   -.124E-12 -.709E-03 -.610E-05   -.643E-14 -.147E-04 0.135E-05   0.000E+00 -.136E-19 -.136E-19   -.721E-14 -.171E-05 -.129E-05
   -.121E-12 -.202E+02 0.204E+02   0.218E-13 0.194E+02 -.225E+02   0.000E+00 0.846E+00 0.207E+01   -.571E-14 -.965E-03 0.218E-02
   -.122E-12 -.188E+02 0.661E+02   -.272E-13 0.184E+02 -.617E+02   0.000E+00 0.420E+00 -.447E+01   -.679E-14 -.185E-02 0.546E-03
   -.119E-12 -.785E-03 -.392E-05   -.169E-13 0.500E-04 -.137E-04   0.000E+00 0.000E+00 -.108E-18   -.365E-14 -.106E-05 -.132E-05
   -.119E-12 0.187E+02 -.781E+01   0.899E-14 -.187E+02 0.733E+01   0.000E+00 -.379E-02 0.508E+00   -.132E-13 0.305E-02 -.192E-02
   -.120E-12 -.187E+02 0.781E+01   0.534E-14 0.187E+02 -.733E+01   0.000E+00 0.379E-02 -.508E+00   -.119E-13 -.305E-02 0.193E-02
   -.126E-12 -.857E+02 0.638E+01   -.236E-13 0.801E+02 -.555E+01   0.000E+00 0.565E+01 -.852E+00   -.116E-13 -.270E-02 -.129E-02
   -.119E-12 -.661E+02 0.696E+01   -.246E-13 0.602E+02 -.709E+01   0.000E+00 0.592E+01 0.140E+00   -.143E-13 0.368E-03 0.310E-02
   -.130E-12 0.661E+02 -.696E+01   0.183E-13 -.602E+02 0.709E+01   0.000E+00 -.592E+01 -.140E+00   -.171E-14 -.366E-03 -.310E-02
   -.122E-12 0.857E+02 -.638E+01   -.186E-14 -.801E+02 0.555E+01   0.000E+00 -.565E+01 0.852E+00   -.301E-14 0.269E-02 0.128E-02
   0.675E-14 0.293E+02 -.292E+02   0.490E-14 -.291E+02 0.295E+02   0.000E+00 -.262E+00 -.410E+00   -.175E-13 0.189E-02 -.258E-02
   0.522E-14 0.258E+02 -.759E+00   -.284E-13 -.260E+02 0.783E+00   0.000E+00 0.245E+00 -.347E-01   -.176E-13 0.395E-03 0.159E-02
   0.676E-14 -.258E+02 0.759E+00   0.337E-13 0.260E+02 -.783E+00   0.000E+00 -.245E+00 0.347E-01   -.160E-13 -.397E-03 -.159E-02
   0.789E-14 -.293E+02 0.292E+02   0.894E-14 0.291E+02 -.295E+02   0.000E+00 0.262E+00 0.410E+00   -.156E-13 -.189E-02 0.258E-02
   0.624E-14 -.293E+01 0.234E+02   0.196E-13 0.242E+01 -.237E+02   0.000E+00 0.539E+00 0.365E+00   -.247E-13 -.179E-02 -.245E-02
   0.982E-14 0.293E+01 -.234E+02   -.862E-14 -.242E+01 0.237E+02   0.000E+00 -.539E+00 -.365E+00   -.206E-13 0.179E-02 0.245E-02
 -----------------------------------------------------------------------------------------------
   -.224E-11 -.521E-02 0.142E-04   0.246E-13 0.764E-13 0.391E-13   0.000E+00 -.111E-15 0.611E-15   -.426E-12 0.744E-06 0.151E-05
 
 
 POSITION                                       TOTAL-FORCE (eV/Angst)
 -----------------------------------------------------------------------------------
      0.00000      3.88837      3.92377         0.000000     -0.000000      0.000000
      0.00000      3.74003      0.01013         0.000000     -0.048154      0.068917
      0.00000      3.81976     -3.83480         0.000000     -0.063919      0.060290
      0.00000      7.77518      0.00155         0.000000     -0.000000      0.000000
      0.00000      7.84145     -4.00886         0.000000      0.063919     -0.060290
      0.00000      0.14756     -0.00935         0.000000      0.048154     -0.068917
     -1.95570      5.83093     -5.88254         0.000000     -0.090111      0.019916
     -1.95570      9.72476     -1.95383         0.000000     -0.107964     -0.043162
     -1.95570      5.83028     -1.96112         0.000000      0.090111     -0.019916
     -1.95570      5.82561      1.95693         0.000000      0.107964      0.043162
     -1.95570      5.82729      5.87125         0.000000     -0.032433     -0.021701
     -1.95570      1.94946      1.97628         0.000000      0.032433      0.021701
     -1.95570      9.70723     -3.87883         0.000000     -0.019412      0.116832
     -1.95570      9.68863     -0.02453         0.000000     -0.042262     -0.014579
     -1.95570      5.83061     -3.92183         0.000000     -0.000000      0.000000
     -1.95570      5.86173      0.02763         0.000000      0.042262      0.014579
     -1.95570      5.84313      3.88193         0.000000      0.019412     -0.116832
     -1.95570      1.94380      0.00039         0.000000     -0.000000      0.000000
     -1.95570      7.77605     -1.94674         0.000000     -0.036484      0.035142
     -1.95570      7.77431      1.94984         0.000000      0.036484     -0.035142
     -1.95570      3.93732     -1.97562         0.000000      0.046175     -0.026003
     -1.95570      3.94143      1.97003         0.000000     -0.004630      0.006264
     -1.95570      3.83532      5.87751         0.000000      0.004630     -0.006264
     -1.95570      7.72389     -5.86804         0.000000     -0.046175      0.026003
      0.00000      9.69426     -1.96180         0.000000     -0.004485     -0.060436
      0.00000      9.70398      1.96085         0.000000      0.024626     -0.008656
      0.00000      5.84639     -1.95775         0.000000     -0.024626      0.008656
      0.00000      5.85611      1.96490         0.000000      0.004485      0.060436
      0.00000      5.84205      5.86768         0.000000      0.034604     -0.001021
      0.00000      1.93470      1.97985         0.000000     -0.034604      0.001021
 -----------------------------------------------------------------------------------
    total drift:                               -0.000000     -0.005211      0.000016


--------------------------------------------------------------------------------------------------------



  FREE ENERGIE OF THE ION-ELECTRON SYSTEM (eV)
  ---------------------------------------------------
  free  energy   TOTEN  =      -226.56008584 eV

  energy  without entropy=     -226.56008584  energy(sigma->0) =     -226.56008584
 


--------------------------------------------------------------------------------------------------------


    POTLOK:  cpu time    0.1001: real time    0.1003


--------------------------------------------------------------------------------------------------------


     LOOP+:  cpu time  112.9938: real time  113.4870
    4ORBIT:  cpu time    0.0000: real time    0.0000
 


 total charge     
 
# of ion       s       p       d       f       tot
--------------------------------------------------
    1        1.998   5.696   0.474   0.185   8.353
    2        2.000   5.694   0.485   0.186   8.364
    3        2.000   5.697   0.486   0.188   8.370
    4        1.999   5.699   0.484   0.189   8.371
    5        2.000   5.697   0.486   0.188   8.370
    6        2.000   5.694   0.485   0.186   8.365
    7        0.323   0.486   4.871   0.000   5.680
    8        0.337   0.518   4.865   0.000   5.720
    9        0.323   0.486   4.871   0.000   5.680
   10        0.337   0.518   4.865   0.000   5.720
   11        0.394   0.565   8.330   0.000   9.289
   12        0.394   0.565   8.330   0.000   9.289
   13        1.561   3.453   0.000   0.000   5.014
   14        1.563   3.453   0.000   0.000   5.017
   15        1.567   3.441   0.000   0.000   5.008
   16        1.563   3.454   0.000   0.000   5.017
   17        1.561   3.453   0.000   0.000   5.014
   18        1.555   3.463   0.000   0.000   5.018
   19        1.560   3.465   0.000   0.000   5.025
   20        1.560   3.465   0.000   0.000   5.025
   21        1.562   3.454   0.000   0.000   5.016
   22        1.562   3.451   0.000   0.000   5.013
   23        1.562   3.451   0.000   0.000   5.013
   24        1.562   3.454   0.000   0.000   5.016
   25        1.566   3.449   0.000   0.000   5.015
   26        1.564   3.449   0.000   0.000   5.013
   27        1.564   3.449   0.000   0.000   5.013
   28        1.566   3.449   0.000   0.000   5.015
   29        1.555   3.461   0.000   0.000   5.016
   30        1.555   3.461   0.000   0.000   5.016
--------------------------------------------------
tot         42.214  99.489  39.031   1.122 181.856

 


 magnetization (x)
 
# of ion       s       p       d       f       tot
--------------------------------------------------
    1        0.001   0.001   0.008   0.004   0.014
    2        0.000   0.000   0.005   0.003   0.008
    3        0.001   0.001   0.010   0.005   0.017
    4        0.001   0.001   0.012   0.006   0.021
    5        0.001   0.001   0.010   0.005   0.017
    6        0.000   0.000   0.005   0.003   0.008
    7        0.025   0.023   3.640   0.000   3.688
    8        0.025   0.027   3.497   0.000   3.549
    9        0.025   0.023   3.640   0.000   3.687
   10        0.025   0.027   3.497   0.000   3.549
   11        0.013   0.006   1.699   0.000   1.718
   12        0.013   0.006   1.699   0.000   1.718
   13        0.006  -0.021   0.000   0.000  -0.015
   14        0.005  -0.026   0.000   0.000  -0.021
   15        0.008  -0.064   0.000   0.000  -0.057
   16        0.005  -0.026   0.000   0.000  -0.021
   17        0.006  -0.021   0.000   0.000  -0.015
   18        0.007   0.046   0.000   0.000   0.054
   19        0.001  -0.022   0.000   0.000  -0.021
   20        0.001  -0.022   0.000   0.000  -0.021
   21        0.005  -0.032   0.000   0.000  -0.027
   22        0.005  -0.027   0.000   0.000  -0.022
   23        0.005  -0.027   0.000   0.000  -0.022
   24        0.005  -0.032   0.000   0.000  -0.027
   25        0.006  -0.054   0.000   0.000  -0.048
   26        0.005  -0.048   0.000   0.000  -0.043
   27        0.005  -0.048   0.000   0.000  -0.043
   28        0.006  -0.054   0.000   0.000  -0.048
   29        0.006   0.027   0.000   0.000   0.033
   30        0.006   0.027   0.000   0.000   0.033
--------------------------------------------------
tot          0.223  -0.309  17.721   0.027  17.663

 
 BZINTS: Fermi energy:  7.828278;222.000000 electrons
         Band energy:-384.527794;  BLOECHL correction: -0.133248

 total amount of memory used by VASP MPI-rank0    77848. kBytes
=======================================================================

   base      :      30000. kBytes
   nonlr-proj:       7387. kBytes
   fftplans  :       2934. kBytes
   grid      :       8258. kBytes
   one-center:        294. kBytes
   wavefun   :      28975. kBytes
 
  
  
 General timing and accounting informations for this job:
 ========================================================
  
                  Total CPU time used (sec):      122.660
                            User time (sec):      119.410
                          System time (sec):        3.250
                         Elapsed time (sec):      123.317
  
                   Maximum memory used (kb):      136604.
                   Average memory used (kb):           0.
  
                          Minor page faults:        41794
                          Major page faults:            0
                 Voluntary context switches:         1534
