 vasp.5.4.4.18Apr17-6-g9f103f2a35 (build Oct 03 2018 13:58:34) complex          
  
 executed on             LinuxIFC date 2019.06.04  00:56:59
 running on   40 total cores
 distrk:  each k-point on   20 cores,    2 groups
 distr:  one band on NCORES_PER_BAND=  10 cores,    2 groups


--------------------------------------------------------------------------------------------------------


 INCAR:
 POTCAR:    PAW_PBE La 06Sep2000                  
 POTCAR:    PAW_PBE Mn 06Sep2000                  
 POTCAR:    PAW_PBE Ni 02Aug2007                  
 POTCAR:    PAW_PBE O 08Apr2002                   

 ----------------------------------------------------------------------------- 
|                                                                             |
|           W    W    AA    RRRRR   N    N  II  N    N   GGGG   !!!           |
|           W    W   A  A   R    R  NN   N  II  NN   N  G    G  !!!           |
|           W    W  A    A  R    R  N N  N  II  N N  N  G       !!!           |
|           W WW W  AAAAAA  RRRRR   N  N N  II  N  N N  G  GGG   !            |
|           WW  WW  A    A  R   R   N   NN  II  N   NN  G    G                |
|           W    W  A    A  R    R  N    N  II  N    N   GGGG   !!!           |
|                                                                             |
|      You have enabled k-point parallelism (KPAR>1).                         |
|      This developmental code was originally  written by Paul Kent at ORNL,  |
|      and carefully double checked in Vienna.                                |
|      GW as well as linear response parallelism added by Martijn Marsman     |
|      and Georg Kresse.                                                      |
|      Carefully verify results versus KPAR=1.                                |
|      Report problems to Paul Kent and Vienna.                               |
|                                                                             |
 ----------------------------------------------------------------------------- 

 POTCAR:    PAW_PBE La 06Sep2000                  
   VRHFIN =La : [core=Kr4d]                                                     
   LEXCH  = PE                                                                  
   EATOM  =   865.9763 eV,   63.6475 Ry                                         
                                                                                
   TITEL  = PAW_PBE La 06Sep2000                                                
   LULTRA =        F    use ultrasoft PP ?                                      
   IUNSCR =        1    unscreen: 0-lin 1-nonlin 2-no                           
   RPACOR =    2.300    partial core radius                                     
   POMASS =  138.900; ZVAL   =   11.000    mass and valenz                      
   RCORE  =    2.800    outmost cutoff radius                                   
   RWIGS  =    2.900; RWIGS  =    1.535    wigner-seitz radius (au A)           
   ENMAX  =  219.292; ENMIN  =  164.469 eV                                      
   RCLOC  =    1.601    cutoff for local pot                                    
   LCOR   =        T    correct aug charges                                     
   LPAW   =        T    paw PP                                                  
   EAUG   =  583.575                                                            
   DEXC   =    0.000                                                            
   RMAX   =    2.853    core radius for proj-oper                               
   RAUG   =    1.300    factor for augmentation sphere                          
   RDEP   =    2.802    radius for radial grids                                 
   RDEPT  =    2.156    core radius for aug-charge                              
                                                                                
   Atomic configuration                                                         
   14 entries                                                                   
     n  l   j            E        occ.                                          
     1  0  0.50    -38741.0879   2.0000                                         
     2  0  0.50     -6166.6801   2.0000                                         
     2  1  1.50     -5526.1593   6.0000                                         
     3  0  0.50     -1319.0200   2.0000                                         
     3  1  1.50     -1114.5963   6.0000                                         
     3  2  2.50      -821.1793  10.0000                                         
     4  0  0.50      -266.3851   2.0000                                         
     4  1  1.50      -199.9276   6.0000                                         
     4  2  2.50      -103.8239  10.0000                                         
     5  0  0.50       -38.9172   2.0000                                         
     6  0  0.50        -3.6792   2.0000                                         
     5  1  1.50       -22.3948   6.0000                                         
     5  2  2.50        -3.0911   0.9999                                         
     4  3  2.50        -4.3603   0.0001                                         
   Description                                                                  
     l       E           TYP  RCUT    TYP  RCUT                                 
     0    -38.9171645     23  2.800                                             
     0     -3.6792381     23  2.800                                             
     1    -22.3948300     23  2.500                                             
     1     27.2116520     23  2.500                                             
     2     -3.0910934     23  2.500                                             
     2      1.0119135     23  2.500                                             
     3     -4.3602911     23  2.800                                             
     3     -5.7208737     23  2.800                                             
  local pseudopotential read in
  partial core-charges read in
  partial kinetic energy density read in
  atomic valenz-charges read in
  non local Contribution for L=           0  read in
    real space projection operators read in
  non local Contribution for L=           0  read in
    real space projection operators read in
  non local Contribution for L=           1  read in
    real space projection operators read in
  non local Contribution for L=           1  read in
    real space projection operators read in
  non local Contribution for L=           2  read in
    real space projection operators read in
  non local Contribution for L=           2  read in
    real space projection operators read in
  non local Contribution for L=           3  read in
    real space projection operators read in
  non local Contribution for L=           3  read in
    real space projection operators read in
    PAW grid and wavefunctions read in
 
   number of l-projection  operators is LMAX  =           8
   number of lm-projection operators is LMMAX =          32
 
 POTCAR:    PAW_PBE Mn 06Sep2000                  
   VRHFIN =Mn: d6 s1                                                            
   LEXCH  = PE                                                                  
   EATOM  =   416.7541 eV,   30.6306 Ry                                         
                                                                                
   TITEL  = PAW_PBE Mn 06Sep2000                                                
   LULTRA =        F    use ultrasoft PP ?                                      
   IUNSCR =        1    unscreen: 0-lin 1-nonlin 2-no                           
   RPACOR =    2.000    partial core radius                                     
   POMASS =   54.938; ZVAL   =    7.000    mass and valenz                      
   RCORE  =    2.300    outmost cutoff radius                                   
   RWIGS  =    2.500; RWIGS  =    1.323    wigner-seitz radius (au A)           
   ENMAX  =  269.864; ENMIN  =  202.398 eV                                      
   RCLOC  =    1.725    cutoff for local pot                                    
   LCOR   =        T    correct aug charges                                     
   LPAW   =        T    paw PP                                                  
   EAUG   =  500.711                                                            
   DEXC   =    0.000                                                            
   RMAX   =    2.343    core radius for proj-oper                               
   RAUG   =    1.300    factor for augmentation sphere                          
   RDEP   =    2.338    radius for radial grids                                 
   RDEPT  =    1.911    core radius for aug-charge                              
                                                                                
   Atomic configuration                                                         
    9 entries                                                                   
     n  l   j            E        occ.                                          
     1  0  0.50     -6424.8288   2.0000                                         
     2  0  0.50      -739.1154   2.0000                                         
     2  1  1.50      -625.3949   6.0000                                         
     3  0  0.50       -81.6100   2.0000                                         
     3  1  1.50       -50.4667   6.0000                                         
     3  2  2.50        -3.3745   6.0000                                         
     4  0  0.50        -4.1331   1.0000                                         
     4  1  0.50        -4.0817   0.0000                                         
     4  3  2.50        -1.3606   0.0000                                         
   Description                                                                  
     l       E           TYP  RCUT    TYP  RCUT                                 
     2     -3.3744664     23  2.300                                             
     2     -4.7350490     23  2.300                                             
     0     -4.1331408     23  2.300                                             
     0      7.6656614     23  2.300                                             
     1     -2.7211652     23  2.300                                             
     1     20.4087390     23  2.300                                             
  local pseudopotential read in
  partial core-charges read in
  partial kinetic energy density read in
  atomic valenz-charges read in
  non local Contribution for L=           2  read in
    real space projection operators read in
  non local Contribution for L=           2  read in
    real space projection operators read in
  non local Contribution for L=           0  read in
    real space projection operators read in
  non local Contribution for L=           0  read in
    real space projection operators read in
  non local Contribution for L=           1  read in
    real space projection operators read in
  non local Contribution for L=           1  read in
    real space projection operators read in
    PAW grid and wavefunctions read in
 
   number of l-projection  operators is LMAX  =           6
   number of lm-projection operators is LMMAX =          18
 
 POTCAR:    PAW_PBE Ni 02Aug2007                  
   VRHFIN =Ni:                                                                  
   LEXCH  = PE                                                                  
   EATOM  =  1077.6739 eV,   79.2068 Ry                                         
                                                                                
   TITEL  = PAW_PBE Ni 02Aug2007                                                
   LULTRA =        F    use ultrasoft PP ?                                      
   IUNSCR =        1    unscreen: 0-lin 1-nonlin 2-no                           
   RPACOR =    2.000    partial core radius                                     
   POMASS =   58.690; ZVAL   =   10.000    mass and valenz                      
   RCORE  =    2.300    outmost cutoff radius                                   
   RWIGS  =    2.430; RWIGS  =    1.286    wigner-seitz radius (au A)           
   ENMAX  =  269.532; ENMIN  =  202.149 eV                                      
   RCLOC  =    1.201    cutoff for local pot                                    
   LCOR   =        T    correct aug charges                                     
   LPAW   =        T    paw PP                                                  
   EAUG   =  544.565                                                            
   DEXC   =    0.000                                                            
   RMAX   =    2.357    core radius for proj-oper                               
   RAUG   =    1.300    factor for augmentation sphere                          
   RDEP   =    2.390    radius for radial grids                                 
   RDEPT  =    1.838    core radius for aug-charge                              
                                                                                
   Atomic configuration                                                         
    9 entries                                                                   
     n  l   j            E        occ.                                          
     1  0  0.50     -8206.4253   2.0000                                         
     2  0  0.50      -976.1748   2.0000                                         
     2  1  1.50      -839.0571   6.0000                                         
     3  0  0.50      -105.9991   2.0000                                         
     3  1  1.50       -66.4603   6.0000                                         
     3  2  2.50        -4.6458   9.0000                                         
     4  0  0.50        -4.4926   1.0000                                         
     4  1  1.50        -4.0817   0.0000                                         
     4  3  2.50        -1.3606   0.0000                                         
   Description                                                                  
     l       E           TYP  RCUT    TYP  RCUT                                 
     2     -4.6457903     23  2.300                                             
     2     -6.0063729     23  2.300                                             
     0     -4.4925590     23  2.300                                             
     0      5.0102601     23  2.300                                             
     1     -2.7211652     23  2.300                                             
     1     16.5183231     23  2.300                                             
  local pseudopotential read in
  partial core-charges read in
  partial kinetic energy density read in
  atomic valenz-charges read in
  non local Contribution for L=           2  read in
    real space projection operators read in
  non local Contribution for L=           2  read in
    real space projection operators read in
  non local Contribution for L=           0  read in
    real space projection operators read in
  non local Contribution for L=           0  read in
    real space projection operators read in
  non local Contribution for L=           1  read in
    real space projection operators read in
  non local Contribution for L=           1  read in
    real space projection operators read in
    PAW grid and wavefunctions read in
 
   number of l-projection  operators is LMAX  =           6
   number of lm-projection operators is LMMAX =          18
 
 POTCAR:    PAW_PBE O 08Apr2002                   
   VRHFIN =O: s2p4                                                              
   LEXCH  = PE                                                                  
   EATOM  =   432.3788 eV,   31.7789 Ry                                         
                                                                                
   TITEL  = PAW_PBE O 08Apr2002                                                 
   LULTRA =        F    use ultrasoft PP ?                                      
   IUNSCR =        1    unscreen: 0-lin 1-nonlin 2-no                           
   RPACOR =    1.200    partial core radius                                     
   POMASS =   16.000; ZVAL   =    6.000    mass and valenz                      
   RCORE  =    1.520    outmost cutoff radius                                   
   RWIGS  =    1.550; RWIGS  =    0.820    wigner-seitz radius (au A)           
   ENMAX  =  400.000; ENMIN  =  300.000 eV                                      
   ICORE  =        2    local potential                                         
   LCOR   =        T    correct aug charges                                     
   LPAW   =        T    paw PP                                                  
   EAUG   =  605.392                                                            
   DEXC   =    0.000                                                            
   RMAX   =    1.553    core radius for proj-oper                               
   RAUG   =    1.300    factor for augmentation sphere                          
   RDEP   =    1.550    radius for radial grids                                 
   RDEPT  =    1.329    core radius for aug-charge                              
                                                                                
   Atomic configuration                                                         
    4 entries                                                                   
     n  l   j            E        occ.                                          
     1  0  0.50      -514.6923   2.0000                                         
     2  0  0.50       -23.9615   2.0000                                         
     2  1  0.50        -9.0305   4.0000                                         
     3  2  1.50        -9.5241   0.0000                                         
   Description                                                                  
     l       E           TYP  RCUT    TYP  RCUT                                 
     0    -23.9615318     23  1.200                                             
     0     -9.5240782     23  1.200                                             
     1     -9.0304911     23  1.520                                             
     1      8.1634956     23  1.520                                             
     2     -9.5240782      7  1.500                                             
  local pseudopotential read in
  partial core-charges read in
  partial kinetic energy density read in
  kinetic energy density of atom read in
  atomic valenz-charges read in
  non local Contribution for L=           0  read in
    real space projection operators read in
  non local Contribution for L=           0  read in
    real space projection operators read in
  non local Contribution for L=           1  read in
    real space projection operators read in
  non local Contribution for L=           1  read in
    real space projection operators read in
    PAW grid and wavefunctions read in
 
   number of l-projection  operators is LMAX  =           4
   number of lm-projection operators is LMMAX =           8
 
 Optimization of the real space projectors (new method)

 maximal supplied QI-value         = 13.42
 optimisation between [QCUT,QGAM] = [ 11.67, 23.35] = [ 38.16,152.62] Ry 
 Optimized for a Real-space Cutoff    1.63 Angstroem

   l    n(q)    QCUT    max X(q) W(low)/X(q) W(high)/X(q)  e(spline) 
   0     11    11.673    13.882    0.27E-04    0.79E-05    0.11E-06
   0     11    11.673    12.184    0.39E-04    0.13E-04    0.19E-06
   1     11    11.673     4.523    0.73E-05    0.76E-05    0.12E-06
   1     11    11.673     4.424    0.87E-05    0.13E-04    0.19E-06
   2     10    11.673    52.481    0.65E-04    0.36E-04    0.18E-06
   2     10    11.673    38.501    0.61E-04    0.33E-04    0.17E-06
   3     10    11.673    65.631    0.17E-03    0.14E-03    0.37E-06
   3     10    11.673    56.854    0.17E-03    0.14E-03    0.37E-06
 Optimization of the real space projectors (new method)

 maximal supplied QI-value         = 16.25
 optimisation between [QCUT,QGAM] = [ 11.54, 23.24] = [ 37.28,151.24] Ry 
 Optimized for a Real-space Cutoff    1.53 Angstroem

   l    n(q)    QCUT    max X(q) W(low)/X(q) W(high)/X(q)  e(spline) 
   2     10    11.539   110.144    0.12E-03    0.13E-03    0.25E-06
   2     10    11.539   103.200    0.12E-03    0.13E-03    0.25E-06
   0     11    11.539    68.437    0.46E-04    0.21E-04    0.32E-06
   0     11    11.539    33.971    0.37E-04    0.19E-04    0.29E-06
   1     10    11.539    17.065    0.51E-04    0.22E-04    0.13E-06
   1     10    11.539    12.540    0.41E-04    0.18E-04    0.11E-06
 Optimization of the real space projectors (new method)

 maximal supplied QI-value         = 16.25
 optimisation between [QCUT,QGAM] = [ 11.54, 23.24] = [ 37.28,151.24] Ry 
 Optimized for a Real-space Cutoff    1.45 Angstroem

   l    n(q)    QCUT    max X(q) W(low)/X(q) W(high)/X(q)  e(spline) 
   2      9    11.539    60.317    0.19E-03    0.47E-04    0.16E-06
   2      9    11.539    55.921    0.19E-03    0.48E-04    0.16E-06
   0     10    11.539    51.690    0.80E-04    0.50E-04    0.24E-06
   0     10    11.539    30.015    0.73E-04    0.45E-04    0.22E-06
   1     10    11.539    18.849    0.87E-04    0.16E-03    0.71E-07
   1     10    11.539    14.624    0.73E-04    0.13E-03    0.64E-07
 Optimization of the real space projectors (new method)

 maximal supplied QI-value         = 24.76
 optimisation between [QCUT,QGAM] = [ 11.64, 23.27] = [ 37.91,151.63] Ry 
 Optimized for a Real-space Cutoff    1.14 Angstroem

   l    n(q)    QCUT    max X(q) W(low)/X(q) W(high)/X(q)  e(spline) 
   0      8    11.635    20.381    0.10E-03    0.33E-03    0.24E-06
   0      8    11.635    15.268    0.11E-03    0.35E-03    0.26E-06
   1      7    11.635     5.964    0.24E-03    0.31E-03    0.30E-06
   1      7    11.635     5.382    0.22E-03    0.25E-03    0.26E-06
  PAW_PBE La 06Sep2000                  :
 energy of atom  1       EATOM= -865.9763
 kinetic energy error for atom=    0.0009 (will be added to EATOM!!)
  PAW_PBE Mn 06Sep2000                  :
 energy of atom  2       EATOM= -416.7541
 kinetic energy error for atom=    0.0024 (will be added to EATOM!!)
  PAW_PBE Ni 02Aug2007                  :
 energy of atom  3       EATOM=-1077.6739
 kinetic energy error for atom=    0.0030 (will be added to EATOM!!)
  PAW_PBE O 08Apr2002                   :
 energy of atom  4       EATOM= -432.3788
 kinetic energy error for atom=    0.0208 (will be added to EATOM!!)
 
 
 POSCAR: SCEL6_3_2_1_0_1_0/7                     
  positions in direct lattice
  velocities in cartesian coordinates
 exchange correlation table for  LEXCH =        8
   RHO(1)=    0.500       N(1)  =     2000
   RHO(2)=  100.500       N(2)  =     4000
 


--------------------------------------------------------------------------------------------------------


 ion  position               nearest neighbor table
   1  0.335  0.502  0.670-  21 2.70  30 2.70  14 2.70  23 2.72  23 2.72  27 2.73  17 2.73  16 2.73
                            26 2.73  19 2.75  13 2.75  29 2.75  12 3.31   8 3.33   8 3.33   9 3.33
   2  0.667  0.996  0.333-  28 2.70  18 2.70  16 2.70  26 2.70  22 2.72  22 2.72  24 2.73  20 2.73
                            25 2.75  13 2.75  15 2.75  29 2.75  12 3.32   8 3.32  10 3.32  10 3.32
   3  0.999  0.502  0.997-  23 2.70  14 2.70  30 2.70  21 2.72  21 2.72  17 2.73  27 2.73  18 2.73
                            28 2.73  19 2.75  15 2.75  25 2.75   8 3.31  12 3.33  12 3.33  11 3.33
   4  0.335  0.998  0.670-  24 2.70  30 2.70  14 2.70  20 2.72  20 2.72  27 2.73  17 2.73  16 2.73
                            26 2.73  22 2.75  13 2.75  29 2.75  12 3.31   8 3.33   8 3.33   9 3.33
   5  0.667  0.504  0.333-  28 2.70  18 2.70  16 2.70  26 2.70  19 2.72  19 2.72  21 2.73  23 2.73
                            25 2.75  13 2.75  15 2.75  29 2.75  12 3.32   8 3.32  10 3.32  10 3.32
   6  0.999  0.998  0.997-  20 2.70  14 2.70  30 2.70  24 2.72  24 2.72  17 2.73  27 2.73  18 2.73
                            28 2.73  22 2.75  15 2.75  25 2.75   8 3.31  12 3.33  12 3.33  11 3.33
   7  0.167  0.250  0.333-  19 1.90  22 1.90  15 1.90  29 1.90  25 1.90  13 1.90   2 3.36   5 3.36
                             2 3.36   5 3.36   3 3.37   6 3.37   1 3.37   4 3.37
   8  0.833  0.750  0.666-  26 1.92  16 1.92  23 1.93  20 1.93  14 1.93  30 1.93   3 3.31   6 3.31
                             5 3.32   2 3.32   1 3.33   4 3.33   1 3.33   4 3.33
   9  0.500  0.250  0.000-  27 1.93  17 1.93  24 1.93  21 1.93  25 1.95  15 1.95   1 3.33   4 3.33
                             3 3.35   6 3.35   3 3.35   6 3.35   5 3.36   2 3.36
  10  0.167  0.750  0.333-  18 1.93  26 1.93  28 1.93  16 1.93  19 1.96  22 1.96   2 3.32   5 3.32
                             2 3.32   5 3.32   3 3.35   6 3.35   1 3.35   4 3.35
  11  0.833  0.250  0.667-  17 1.93  27 1.93  23 1.93  20 1.93  29 1.95  13 1.95   3 3.33   6 3.33
                             4 3.35   1 3.35   1 3.35   4 3.35   5 3.36   2 3.36
  12  0.500  0.750  0.000-  28 1.92  18 1.92  24 1.93  21 1.93  30 1.93  14 1.93   1 3.31   4 3.31
                             2 3.32   5 3.32   3 3.33   6 3.33   3 3.33   6 3.33
  13  0.002  0.250  0.498-   7 1.90  11 1.95   2 2.75   5 2.75   4 2.75   1 2.75
  14  0.667  0.750  0.833-   8 1.93  12 1.93   3 2.70   6 2.70   4 2.70   1 2.70
  15  0.332  0.250  0.169-   7 1.90   9 1.95   2 2.75   5 2.75   3 2.75   6 2.75
  16  0.999  0.750  0.500-   8 1.92  10 1.93   2 2.70   5 2.70   4 2.73   1 2.73
  17  0.667  0.250  0.833-  11 1.93   9 1.93   3 2.73   6 2.73   4 2.73   1 2.73
  18  0.334  0.750  0.167-  12 1.92  10 1.93   2 2.70   5 2.70   3 2.73   6 2.73
  19  0.167  0.496  0.333-   7 1.90  10 1.96   5 2.72   5 2.72   3 2.75   1 2.75
  20  0.833  1.000  0.667-   8 1.93  11 1.93   6 2.70   4 2.72   4 2.72   2 2.73
  21  0.500  0.500  1.000-  12 1.93   9 1.93   1 2.70   3 2.72   3 2.72   5 2.73
  22  0.167  0.004  0.333-   7 1.90  10 1.96   2 2.72   2 2.72   6 2.75   4 2.75
  23  0.833  0.500  0.667-   8 1.93  11 1.93   3 2.70   1 2.72   1 2.72   5 2.73
  24  0.500  1.000  1.000-  12 1.93   9 1.93   4 2.70   6 2.72   6 2.72   2 2.73
  25  0.837  0.250  0.169-   7 1.90   9 1.95   2 2.75   5 2.75   3 2.75   6 2.75
  26  0.501  0.750  0.500-   8 1.92  10 1.93   2 2.70   5 2.70   4 2.73   1 2.73
  27  0.167  0.250  0.833-  11 1.93   9 1.93   1 2.73   4 2.73   3 2.73   6 2.73
  28  0.832  0.750  0.167-  12 1.92  10 1.93   2 2.70   5 2.70   3 2.73   6 2.73
  29  0.496  0.250  0.498-   7 1.90  11 1.95   2 2.75   5 2.75   4 2.75   1 2.75
  30  0.167  0.750  0.833-   8 1.93  12 1.93   1 2.70   4 2.70   3 2.70   6 2.70
 
  LATTYP: Found a base centered orthorhombic cell.
 ALAT       =     5.4446493550
 B/A-ratio  =     3.0023987943
 C/A-ratio  =     1.4176826858
  
  Lattice vectors:
  
 A1 = (   3.8545661022,   0.0000000000,  -7.7045145727)
 A2 = (  -7.7045145822,   0.0000000000,   3.8545660925)
 A3 = (   0.0000000000,   7.7187851209,   0.0000000000)


Analysis of symmetry for initial positions (statically):
=====================================================================
 Subroutine PRICEL returns:
 Original cell was already a primitive cell.
 

 Routine SETGRP: Setting up the symmetry group for a 
 base centered orthorhombic supercell.


 Subroutine GETGRP returns: Found  8 space group operations
 (whereof  2 operations were pure point group operations)
 out of a pool of  8 trial point group operations.


The static configuration has the point symmetry C_1h.
 The point group associated with its full space group is D_2h.


Analysis of symmetry for dynamics (positions and initial velocities):
=====================================================================
 Subroutine PRICEL returns:
 Original cell was already a primitive cell.
 

 Routine SETGRP: Setting up the symmetry group for a 
 base centered orthorhombic supercell.


 Subroutine GETGRP returns: Found  8 space group operations
 (whereof  2 operations were pure point group operations)
 out of a pool of  8 trial point group operations.


The dynamic configuration has the point symmetry C_1h.
 The point group associated with its full space group is D_2h.


Analysis of structural, dynamic, and magnetic symmetry:
=====================================================================
 Subroutine PRICEL returns:
 Original cell was already a primitive cell.
 

 Routine SETGRP: Setting up the symmetry group for a 
 base centered orthorhombic supercell.


 Subroutine GETGRP returns: Found  8 space group operations
 (whereof  2 operations were pure point group operations)
 out of a pool of  8 trial point group operations.


The magnetic configuration has the point symmetry C_1h.
 The point group associated with its full space group is D_2h.


 Subroutine INISYM returns: Found  8 space group operations
 (whereof  2 operations are pure point group operations),
 and found     1 'primitive' translations

 
 
 KPOINTS: Automatic mesh                          

Automatic generation of k-mesh.
 generate k-points for:    4    3    2
Space group operators:
 irot       det(A)        alpha          n_x          n_y          n_z        tau_x        tau_y        tau_z
    1     1.000000     0.000000     1.000000     0.000000     0.000000     0.000000     0.000000     0.000000
    2    -1.000000   180.000000    -0.707107     0.000000    -0.707107     0.000000     0.000000     0.000000
    3    -1.000000     0.000000     1.000000     0.000000     0.000000    -0.666667    -0.500000    -0.333333
    4     1.000000   180.000000     0.000000     1.000000     0.000000    -0.666667     0.000000    -0.333333
    5    -1.000000   180.000000     0.000000     1.000000     0.000000     0.000000    -0.500000     0.000000
    6     1.000000   179.999999     0.707107     0.000000    -0.707107     0.000000    -0.500000     0.000000
    7    -1.000000   179.999999     0.707107     0.000000    -0.707107    -0.666667     0.000000    -0.333333
    8     1.000000   180.000000    -0.707107     0.000000    -0.707107    -0.666667    -0.500000    -0.333333
 
 Subroutine IBZKPT returns following result:
 ===========================================
 
 Found     10 irreducible k-points:
 
 Following reciprocal coordinates:
            Coordinates               Weight
  0.000000  0.000000  0.000000      1.000000
  0.250000  0.000000  0.000000      2.000000
  0.500000  0.000000  0.000000      2.000000
  0.000000  0.333333  0.000000      2.000000
  0.250000  0.333333  0.000000      4.000000
  0.500000  0.333333  0.000000      4.000000
 -0.000000  0.000000  0.500000      1.000000
  0.250000  0.000000  0.500000      2.000000
 -0.000000  0.333333  0.500000      2.000000
  0.250000  0.333333  0.500000      4.000000
 
 Following cartesian coordinates:
            Coordinates               Weight
  0.000000  0.000000  0.000000      1.000000
  0.043282  0.000000  0.021654      2.000000
  0.086564  0.000000  0.043308      2.000000
  0.000000 -0.043185  0.000000      2.000000
  0.043282 -0.043185  0.021654      4.000000
  0.086564 -0.043185  0.043308      4.000000
  0.043256  0.000000 -0.043256      1.000000
  0.086538  0.000000 -0.021602      2.000000
  0.043256 -0.043185 -0.043256      2.000000
  0.086538 -0.043185 -0.021602      4.000000
 
 TETIRR: Found     65 inequivalent tetrahedra from      144


--------------------------------------------------------------------------------------------------------




 Dimension of arrays:
   k-points           NKPTS =     10   k-points in BZ     NKDIM =     10   number of bands    NBANDS=    148
   number of dos      NEDOS =    301   number of ions     NIONS =     30
   non local maximal  LDIM  =      8   non local SUM 2l+1 LMDIM =     32
   total plane-waves  NPLWV = 153600
   max r-space proj   IRMAX =   8120   max aug-charges    IRDMAX=  23562
   dimension x,y,z NGX =    40 NGY =   60 NGZ =   64
   dimension x,y,z NGXF=    80 NGYF=  120 NGZF=  128
   support grid    NGXF=    80 NGYF=  120 NGZF=  128
   ions per type =               6   1   5  18
   NGX,Y,Z   is equivalent  to a cutoff of  12.21, 12.92, 12.35 a.u.
   NGXF,Y,Z  is equivalent  to a cutoff of  24.43, 25.85, 24.70 a.u.

 SYSTEM =  final                                   
 POSCAR =  SCEL6_3_2_1_0_1_0/7                     

 Startparameter for this run:
   NWRITE =      2    write-flag & timer
   PREC   = accura    normal or accurate (medium, high low for compatibility)
   ISTART =      0    job   : 0-new  1-cont  2-samecut
   ICHARG =      1    charge: 1-file 2-atom 10-const
   ISPIN  =      2    spin polarized calculation?
   LNONCOLLINEAR =      F non collinear calculations
   LSORBIT =      F    spin-orbit coupling
   INIWAV =      1    electr: 0-lowe 1-rand  2-diag
   LASPH  =      F    aspherical Exc in radial PAW
   METAGGA=      F    non-selfconsistent MetaGGA calc.

 Electronic Relaxation 1
   ENCUT  =  520.0 eV  38.22 Ry    6.18 a.u.  10.12 14.35 16.02*2*pi/ulx,y,z
   ENINI  =  520.0     initial cutoff
   ENAUG  =  605.4 eV  augmentation charge cutoff
   NELM   =    100;   NELMIN=  2; NELMDL= -5     # of ELM steps 
   EDIFF  = 0.1E-02   stopping-criterion for ELM
   LREAL  =      T    real-space projection
   NLSPLINE    = F    spline interpolate recip. space projectors
   LCOMPAT=      F    compatible to vasp.4.4
   GGA_COMPAT  = T    GGA compatible to vasp.4.4-vasp.4.6
   LMAXPAW     = -100 max onsite density
   LMAXMIX     =    6 max onsite mixed and CHGCAR
   VOSKOWN=      0    Vosko Wilk Nusair interpolation
   ROPT   =   -0.00025  -0.00025  -0.00025  -0.00025
 Ionic relaxation
   EDIFFG = 0.1E-01   stopping-criterion for IOM
   NSW    =      0    number of steps for IOM
   NBLOCK =      1;   KBLOCK =      1    inner block; outer block 
   IBRION =     -1    ionic relax: 0-MD 1-quasi-New 2-CG
   NFREE  =      0    steps in history (QN), initial steepest desc. (CG)
   ISIF   =      2    stress and relaxation
   IWAVPR =     10    prediction:  0-non 1-charg 2-wave 3-comb
   ISYM   =      2    0-nonsym 1-usesym 2-fastsym
   LCORR  =      T    Harris-Foulkes like correction to forces

   POTIM  = 0.5000    time-step for ionic-motion
   TEIN   =    0.0    initial temperature
   TEBEG  =    0.0;   TEEND  =   0.0 temperature during run
   SMASS  =  -3.00    Nose mass-parameter (am)
   estimated Nose-frequenzy (Omega)   =  0.10E-29 period in steps =****** mass=  -0.677E-27a.u.
   SCALEE = 1.0000    scale energy and forces
   NPACO  =    256;   APACO  = 16.0  distance and # of slots for P.C.
   PSTRESS=    0.0 pullay stress

  Mass of Ions in am
   POMASS = 138.90 54.94 58.69 16.00
  Ionic Valenz
   ZVAL   =  11.00  7.00 10.00  6.00
  Atomic Wigner-Seitz radii
   RWIGS  =  -1.00 -1.00 -1.00 -1.00
  virtual crystal weights 
   VCA    =   1.00  1.00  1.00  1.00
   NELECT =     231.0000    total number of electrons
   NUPDOWN=      -1.0000    fix difference up-down

 DOS related values:
   EMIN   =  10.00;   EMAX   =-10.00  energy-range for DOS
   EFERMI =   0.00
   ISMEAR =    -5;   SIGMA  =   0.05  broadening in eV -4-tet -1-fermi 0-gaus

 Electronic relaxation 2 (details)
   IALGO  =     68    algorithm
   LDIAG  =      T    sub-space diagonalisation (order eigenvalues)
   LSUBROT=      F    optimize rotation matrix (better conditioning)
   TURBO    =      0    0=normal 1=particle mesh
   IRESTART =      0    0=no restart 2=restart with 2 vectors
   NREBOOT  =      0    no. of reboots
   NMIN     =      0    reboot dimension
   EREF     =   0.00    reference energy to select bands
   IMIX   =      4    mixing-type and parameters
     AMIX     =   0.40;   BMIX     =  1.00
     AMIX_MAG =   1.60;   BMIX_MAG =  1.00
     AMIN     =   0.10
     WC   =   100.;   INIMIX=   1;  MIXPRE=   1;  MAXMIX= -45

 Intra band minimization:
   WEIMIN = 0.0000     energy-eigenvalue tresh-hold
   EBREAK =  0.17E-05  absolut break condition
   DEPER  =   0.30     relativ break condition  

   TIME   =   0.40     timestep for ELM

  volume/ion in A,a.u.               =      11.45        77.27
  Fermi-wavevector in a.u.,A,eV,Ry     =   1.434288  2.710412 27.989670  2.057183
  Thomas-Fermi vector in A             =   2.553713
 
 Write flags
   LWAVE        =      F    write WAVECAR
   LDOWNSAMPLE  =      F    k-point downsampling of WAVECAR
   LCHARG       =      T    write CHGCAR
   LVTOT        =      F    write LOCPOT, total local potential
   LVHAR        =      F    write LOCPOT, Hartree potential only
   LELF         =      F    write electronic localiz. function (ELF)
   LORBIT       =     11    0 simple, 1 ext, 2 COOP (PROOUT), +10 PAW based schemes


 Dipole corrections
   LMONO  =      F    monopole corrections only (constant potential shift)
   LDIPOL =      F    correct potential (dipole corrections)
   IDIPOL =      0    1-x, 2-y, 3-z, 4-all directions 
   EPSILON=  1.0000000 bulk dielectric constant

 LDA+U is selected, type is set to LDAUTYPE =  2
   angular momentum for each species LDAUL =     0    2    2    0
   U (eV)           for each species LDAUU =   0.0  3.9  6.2  0.0
   J (eV)           for each species LDAUJ =   0.0  0.0  0.0  0.0
 Exchange correlation treatment:
   GGA     =    --    GGA type
   LEXCH   =     8    internal setting for exchange type
   VOSKOWN=      0    Vosko Wilk Nusair interpolation
   LHFCALC =     F    Hartree Fock is set to
   LHFONE  =     F    Hartree Fock one center treatment
   AEXX    =    0.0000 exact exchange contribution

 Linear response parameters
   LEPSILON=     F    determine dielectric tensor
   LRPA    =     F    only Hartree local field effects (RPA)
   LNABLA  =     F    use nabla operator in PAW spheres
   LVEL    =     F    velocity operator in full k-point grid
   LINTERFAST=   F  fast interpolation
   KINTER  =     0    interpolate to denser k-point grid
   CSHIFT  =0.1000    complex shift for real part using Kramers Kronig
   OMEGAMAX=  -1.0    maximum frequency
   DEG_THRESHOLD= 0.2000000E-02 threshold for treating states as degnerate
   RTIME   =   -0.100 relaxation time in fs
  (WPLASMAI=    0.000 imaginary part of plasma frequency in eV, 0.658/RTIME)
   DFIELD  = 0.0000000 0.0000000 0.0000000 field for delta impulse in time
 
 Orbital magnetization related:
   ORBITALMAG=     F  switch on orbital magnetization
   LCHIMAG   =     F  perturbation theory with respect to B field
   DQ        =  0.001000  dq finite difference perturbation B field
   LLRAUG    =     F  two centre corrections for induced B field



--------------------------------------------------------------------------------------------------------


 Static calculation
 charge density and potential will be updated during run
 spin polarized calculation
 RMM-DIIS sequential band-by-band and
  variant of blocked Davidson during initial phase
 perform sub-space diagonalisation
    before iterative eigenvector-optimisation
 modified Broyden-mixing scheme, WC =      100.0
 initial mixing is a Kerker type mixing with AMIX =  0.4000 and BMIX =      1.0000
 Hartree-type preconditioning will be used
 using additional bands           32
 real space projection scheme for non local part
 use partial core corrections
 calculate Harris-corrections to forces 
   (improved forces if not selfconsistent)
 use gradient corrections 
 use of overlap-Matrix (Vanderbilt PP)
 Fermi weights with tetrahedron method with Bloechl corrections


--------------------------------------------------------------------------------------------------------


  energy-cutoff  :      520.00
  volume of cell :      343.50
      direct lattice vectors                 reciprocal lattice vectors
     3.849948480  0.000000000  3.849948480     0.173127903  0.000000000  0.086615833
     0.000000000 -7.718785121  0.000000000     0.000000000 -0.129554066  0.000000000
     3.854566102  0.000000000 -7.704514573     0.086512070  0.000000000 -0.086512070

  length of vectors
     5.444649355  7.718785121  8.614941940     0.193586087  0.129554066  0.122346543


 
 k-points in units of 2pi/SCALE and weight: Automatic mesh                          
   0.00000000  0.00000000  0.00000000       0.042
   0.04328198  0.00000000  0.02165396       0.083
   0.08656395  0.00000000  0.04330792       0.083
   0.00000000 -0.04318469  0.00000000       0.083
   0.04328198 -0.04318469  0.02165396       0.167
   0.08656395 -0.04318469  0.04330792       0.167
   0.04325604  0.00000000 -0.04325604       0.042
   0.08653801  0.00000000 -0.02160208       0.083
   0.04325604 -0.04318469 -0.04325604       0.083
   0.08653801 -0.04318469 -0.02160208       0.167
 
 k-points in reciprocal lattice and weights: Automatic mesh                          
   0.00000000  0.00000000  0.00000000       0.042
   0.25000000  0.00000000  0.00000000       0.083
   0.50000000  0.00000000  0.00000000       0.083
   0.00000000  0.33333333  0.00000000       0.083
   0.25000000  0.33333333  0.00000000       0.167
   0.50000000  0.33333333  0.00000000       0.167
  -0.00000000  0.00000000  0.50000000       0.042
   0.25000000  0.00000000  0.50000000       0.083
  -0.00000000  0.33333333  0.50000000       0.083
   0.25000000  0.33333333  0.50000000       0.167
 
 position of ions in fractional coordinates (direct lattice) 
   0.33477872  0.50235518  0.66955754
   0.66666670  0.99556600  0.33333330
   0.99855458  0.50235518  0.99710916
   0.33477872  0.99764482  0.66955754
   0.66666670  0.50443400  0.33333330
   0.99855458  0.99764482  0.99710916
   0.16666670  0.25000000  0.33333330
   0.83317236  0.75000000  0.66634481
   0.50003631  0.25000000  0.00007262
   0.16666670  0.75000000  0.33333330
   0.83329699  0.25000000  0.66659408
   0.50016094  0.75000000  0.00032189
   0.00151245  0.25000000  0.49769668
   0.66666670  0.75000000  0.83333330
   0.33182085  0.25000000  0.16897002
   0.99894362  0.75000000  0.50009460
   0.66666670  0.25000000  0.83333330
   0.33438968  0.75000000  0.16657210
   0.16666670  0.49634339  0.33333330
   0.83345272  0.99951855  0.66690555
   0.49988058  0.50048145  0.99976115
   0.16666670  0.00365661  0.33333330
   0.83345272  0.50048145  0.66690555
   0.49988058  0.99951855  0.99976115
   0.83714907  0.25000000  0.16897002
   0.50115098  0.75000000  0.50009460
   0.16666670  0.25000000  0.83333330
   0.83218232  0.75000000  0.16657210
   0.49618423  0.25000000  0.49769668
   0.16666670  0.75000000  0.83333330
 
 position of ions in cartesian coordinates  (Angst):
   3.86973462 -3.87757166 -3.86973500
   3.85148769 -7.68456002 -0.00153882
   7.68780685 -3.87757166 -3.83785836
   3.86973462 -7.70060602 -3.86973500
   3.85148769 -3.89361766 -0.00153882
   7.68780685 -7.70060602 -3.83785836
   1.92651345 -1.92969628 -1.92651306
   5.77614076 -5.78908884 -1.92619266
   1.92539393 -1.92969628  1.92455455
   1.92651345 -5.78908884 -1.92651306
   5.77758145 -1.92969628 -1.92763335
   1.92683462 -5.78908884  1.92311387
   1.92422762 -1.92969628 -3.82868846
   5.77877074 -5.78908884 -3.85379611
   1.92879928 -1.92969628 -0.02433881
   5.77352918 -5.78908884 -0.00710465
   5.77877074 -1.92969628 -3.85379611
   1.92944619 -5.78908884  0.00402586
   1.92651345 -3.83116794 -1.92651306
   5.77938155 -7.71506887 -1.92943345
   5.77815993 -3.86310881 -5.77815992
   1.92651345 -0.02822462 -1.92651306
   5.77938155 -3.86310881 -1.92943345
   5.77815993 -7.71506887 -5.77815992
   3.87428691 -1.92969628  1.92114882
   3.85705314 -5.78908884 -1.92358070
   3.85379650 -1.92969628 -5.77877035
   3.84592224 -5.78908884  1.92050191
   3.82868846 -1.92969628 -1.92422761
   3.85379650 -5.78908884 -5.77877035
 


--------------------------------------------------------------------------------------------------------


 k-point  1 :   0.0000 0.0000 0.0000  plane waves:    9285
 k-point  2 :   0.2500 0.0000 0.0000  plane waves:    9253
 k-point  3 :   0.5000 0.0000 0.0000  plane waves:    9208
 k-point  4 :   0.0000 0.3333 0.0000  plane waves:    9231
 k-point  5 :   0.2500 0.3333 0.0000  plane waves:    9234
 k-point  6 :   0.5000 0.3333 0.0000  plane waves:    9254
 k-point  7 :  -0.0000 0.0000 0.5000  plane waves:    9228
 k-point  8 :   0.2500 0.0000 0.5000  plane waves:    9249
 k-point  9 :  -0.0000 0.3333 0.5000  plane waves:    9226
 k-point 10 :   0.2500 0.3333 0.5000  plane waves:    9252

 maximum and minimum number of plane-waves per node :       942      913

 maximum number of plane-waves:      9285
 maximum index in each direction: 
   IXMAX=   10   IYMAX=   14   IZMAX=   16
   IXMIN=  -10   IYMIN=  -14   IZMIN=  -16


 real space projection operators:
  total allocation   :      19566.88 KBytes
  max/ min on nodes  :       1965.80       1943.39


 parallel 3D FFT for wavefunctions:
    minimum data exchange during FFTs selected (reduces bandwidth)
 parallel 3D FFT for charge:
    minimum data exchange during FFTs selected (reduces bandwidth)


 total amount of memory used by VASP MPI-rank0    70008. kBytes
=======================================================================

   base      :      30000. kBytes
   nonlr-proj:       6556. kBytes
   fftplans  :       2552. kBytes
   grid      :       7211. kBytes
   one-center:        294. kBytes
   wavefun   :      23395. kBytes
 
     INWAV:  cpu time    0.0000: real time    0.0002
 Broyden mixing: mesh for mixing (old mesh)
   NGX = 21   NGY = 29   NGZ = 33
  (NGX  = 80   NGY  =120   NGZ  =128)
  gives a total of  20097 points

 initial charge density was supplied:
 charge density of overlapping atoms calculated
 number of electron     231.0000000 magnetization      19.0000000
 keeping initial charge density in first step


--------------------------------------------------------------------------------------------------------


 Maximum index for non-local projection operator          809
 Maximum index for augmentation-charges         1249 (set IRDMAX)


--------------------------------------------------------------------------------------------------------


 First call to EWALD:  gamma=   0.253
 Maximum number of real-space cells 4x 3x 2
 Maximum number of reciprocal cells 2x 3x 3

    FEWALD:  cpu time    0.0016: real time    0.0016


--------------------------------------- Iteration      1(   1)  ---------------------------------------


    POTLOK:  cpu time    0.0713: real time    0.0729
    SETDIJ:  cpu time    0.0149: real time    0.0149
atom =   1  type =  1  l = 0
 
 onsite density matrix
 
spin component  1
 
  1.0989
 
spin component  2
 
  1.0989
 
 occupancies and eigenvectors
 
  o =  1.0989  v =  1.0000  0.0000      0.0000  0.0000
  o =  1.0989  v =  0.0000  1.0000      0.0000  0.0000
atom =   2  type =  1  l = 0
 
 onsite density matrix
 
spin component  1
 
  1.0989
 
spin component  2
 
  1.0989
 
 occupancies and eigenvectors
 
  o =  1.0989  v =  1.0000  0.0000      0.0000  0.0000
  o =  1.0989  v =  0.0000  1.0000      0.0000  0.0000
atom =   3  type =  1  l = 0
 
 onsite density matrix
 
spin component  1
 
  1.0989
 
spin component  2
 
  1.0989
 
 occupancies and eigenvectors
 
  o =  1.0989  v =  1.0000  0.0000      0.0000  0.0000
  o =  1.0989  v =  0.0000  1.0000      0.0000  0.0000
atom =   4  type =  1  l = 0
 
 onsite density matrix
 
spin component  1
 
  1.0989
 
spin component  2
 
  1.0989
 
 occupancies and eigenvectors
 
  o =  1.0989  v =  1.0000  0.0000      0.0000  0.0000
  o =  1.0989  v =  0.0000  1.0000      0.0000  0.0000
atom =   5  type =  1  l = 0
 
 onsite density matrix
 
spin component  1
 
  1.0989
 
spin component  2
 
  1.0989
 
 occupancies and eigenvectors
 
  o =  1.0989  v =  1.0000  0.0000      0.0000  0.0000
  o =  1.0989  v =  0.0000  1.0000      0.0000  0.0000
atom =   6  type =  1  l = 0
 
 onsite density matrix
 
spin component  1
 
  1.0989
 
spin component  2
 
  1.0989
 
 occupancies and eigenvectors
 
  o =  1.0989  v =  1.0000  0.0000      0.0000  0.0000
  o =  1.0989  v =  0.0000  1.0000      0.0000  0.0000
atom =   7  type =  2  l = 2
 
 onsite density matrix
 
spin component  1
 
  0.8272  0.0000  0.0000  0.0000  0.0000
  0.0000  0.8272  0.0000  0.0000  0.0000
  0.0000  0.0000  0.8272  0.0000  0.0000
  0.0000  0.0000  0.0000  0.8272  0.0000
  0.0000  0.0000  0.0000  0.0000  0.8272
 
spin component  2
 
  0.2256  0.0000  0.0000  0.0000  0.0000
  0.0000  0.2256  0.0000  0.0000  0.0000
  0.0000  0.0000  0.2256  0.0000  0.0000
  0.0000  0.0000  0.0000  0.2256  0.0000
  0.0000  0.0000  0.0000  0.0000  0.2256
 
 occupancies and eigenvectors
 
  o =  0.2256  v =  0.0000  0.0000  0.0000  0.0000  0.0000  0.0000  0.0000  1.0000  0.0000  0.0000      0.0000  0.0000  0.0000  0.0000  0.0000  0.0000  0.0000  0.0000  0.0000  0.0000
  o =  0.2256  v =  0.0000  0.0000  0.0000  0.0000  0.0000  1.0000  0.0000  0.0000  0.0000  0.0000      0.0000  0.0000  0.0000  0.0000  0.0000  0.0000  0.0000  0.0000  0.0000  0.0000
  o =  0.2256  v =  0.0000  0.0000  0.0000  0.0000  0.0000  0.0000  1.0000  0.0000  0.0000  0.0000      0.0000  0.0000  0.0000  0.0000  0.0000  0.0000  0.0000  0.0000  0.0000  0.0000
  o =  0.2256  v =  0.0000  0.0000  0.0000  0.0000  0.0000  0.0000  0.0000  0.0000  1.0000  0.0000      0.0000  0.0000  0.0000  0.0000  0.0000  0.0000  0.0000  0.0000  0.0000  0.0000
  o =  0.2256  v =  0.0000  0.0000  0.0000  0.0000  0.0000  0.0000  0.0000  0.0000  0.0000  1.0000      0.0000  0.0000  0.0000  0.0000  0.0000  0.0000  0.0000  0.0000  0.0000  0.0000
  o =  0.8272  v =  0.0000  1.0000  0.0000  0.0000  0.0000  0.0000  0.0000  0.0000  0.0000  0.0000      0.0000  0.0000  0.0000  0.0000  0.0000  0.0000  0.0000  0.0000  0.0000  0.0000
  o =  0.8272  v =  0.0000  0.0000  1.0000  0.0000  0.0000  0.0000  0.0000  0.0000  0.0000  0.0000      0.0000  0.0000  0.0000  0.0000  0.0000  0.0000  0.0000  0.0000  0.0000  0.0000
  o =  0.8272  v =  1.0000  0.0000  0.0000  0.0000  0.0000  0.0000  0.0000  0.0000  0.0000  0.0000      0.0000  0.0000  0.0000  0.0000  0.0000  0.0000  0.0000  0.0000  0.0000  0.0000
  o =  0.8272  v =  0.0000  0.0000  0.0000  1.0000  0.0000  0.0000  0.0000  0.0000  0.0000  0.0000      0.0000  0.0000  0.0000  0.0000  0.0000  0.0000  0.0000  0.0000  0.0000  0.0000
  o =  0.8272  v =  0.0000  0.0000  0.0000  0.0000  1.0000  0.0000  0.0000  0.0000  0.0000  0.0000      0.0000  0.0000  0.0000  0.0000  0.0000  0.0000  0.0000  0.0000  0.0000  0.0000
atom =   8  type =  3  l = 2
 
 onsite density matrix
 
spin component  1
 
  1.1008  0.0000  0.0000  0.0000  0.0000
  0.0000  1.1008  0.0000  0.0000  0.0000
  0.0000  0.0000  1.1008  0.0000  0.0000
  0.0000  0.0000  0.0000  1.1008  0.0000
  0.0000  0.0000  0.0000  0.0000  1.1008
 
spin component  2
 
  0.5927  0.0000  0.0000  0.0000  0.0000
  0.0000  0.5927  0.0000  0.0000  0.0000
  0.0000  0.0000  0.5927  0.0000  0.0000
  0.0000  0.0000  0.0000  0.5927  0.0000
  0.0000  0.0000  0.0000  0.0000  0.5927
 
 occupancies and eigenvectors
 
  o =  0.5927  v =  0.0000  0.0000  0.0000  0.0000  0.0000  1.0000  0.0000  0.0000  0.0000  0.0000      0.0000  0.0000  0.0000  0.0000  0.0000  0.0000  0.0000  0.0000  0.0000  0.0000
  o =  0.5927  v =  0.0000  0.0000  0.0000  0.0000  0.0000  0.0000  1.0000  0.0000  0.0000  0.0000      0.0000  0.0000  0.0000  0.0000  0.0000  0.0000  0.0000  0.0000  0.0000  0.0000
  o =  0.5927  v =  0.0000  0.0000  0.0000  0.0000  0.0000  0.0000  0.0000  1.0000  0.0000  0.0000      0.0000  0.0000  0.0000  0.0000  0.0000  0.0000  0.0000  0.0000  0.0000  0.0000
  o =  0.5927  v =  0.0000  0.0000  0.0000  0.0000  0.0000  0.0000  0.0000  0.0000  1.0000  0.0000      0.0000  0.0000  0.0000  0.0000  0.0000  0.0000  0.0000  0.0000  0.0000  0.0000
  o =  0.5927  v =  0.0000  0.0000  0.0000  0.0000  0.0000  0.0000  0.0000  0.0000  0.0000  1.0000      0.0000  0.0000  0.0000  0.0000  0.0000  0.0000  0.0000  0.0000  0.0000  0.0000
  o =  1.1008  v =  1.0000  0.0000  0.0000  0.0000  0.0000  0.0000  0.0000  0.0000  0.0000  0.0000      0.0000  0.0000  0.0000  0.0000  0.0000  0.0000  0.0000  0.0000  0.0000  0.0000
  o =  1.1008  v =  0.0000  1.0000  0.0000  0.0000  0.0000  0.0000  0.0000  0.0000  0.0000  0.0000      0.0000  0.0000  0.0000  0.0000  0.0000  0.0000  0.0000  0.0000  0.0000  0.0000
  o =  1.1008  v =  0.0000  0.0000  1.0000  0.0000  0.0000  0.0000  0.0000  0.0000  0.0000  0.0000      0.0000  0.0000  0.0000  0.0000  0.0000  0.0000  0.0000  0.0000  0.0000  0.0000
  o =  1.1008  v =  0.0000  0.0000  0.0000  1.0000  0.0000  0.0000  0.0000  0.0000  0.0000  0.0000      0.0000  0.0000  0.0000  0.0000  0.0000  0.0000  0.0000  0.0000  0.0000  0.0000
  o =  1.1008  v =  0.0000  0.0000  0.0000  0.0000  1.0000  0.0000  0.0000  0.0000  0.0000  0.0000      0.0000  0.0000  0.0000  0.0000  0.0000  0.0000  0.0000  0.0000  0.0000  0.0000
atom =   9  type =  3  l = 2
 
 onsite density matrix
 
spin component  1
 
  1.1008  0.0000  0.0000  0.0000  0.0000
  0.0000  1.1008  0.0000  0.0000  0.0000
  0.0000  0.0000  1.1008  0.0000  0.0000
  0.0000  0.0000  0.0000  1.1008  0.0000
  0.0000  0.0000  0.0000  0.0000  1.1008
 
spin component  2
 
  0.5927  0.0000  0.0000  0.0000  0.0000
  0.0000  0.5927  0.0000  0.0000  0.0000
  0.0000  0.0000  0.5927  0.0000  0.0000
  0.0000  0.0000  0.0000  0.5927  0.0000
  0.0000  0.0000  0.0000  0.0000  0.5927
 
 occupancies and eigenvectors
 
  o =  0.5927  v =  0.0000  0.0000  0.0000  0.0000  0.0000  1.0000  0.0000  0.0000  0.0000  0.0000      0.0000  0.0000  0.0000  0.0000  0.0000  0.0000  0.0000  0.0000  0.0000  0.0000
  o =  0.5927  v =  0.0000  0.0000  0.0000  0.0000  0.0000  0.0000  1.0000  0.0000  0.0000  0.0000      0.0000  0.0000  0.0000  0.0000  0.0000  0.0000  0.0000  0.0000  0.0000  0.0000
  o =  0.5927  v =  0.0000  0.0000  0.0000  0.0000  0.0000  0.0000  0.0000  1.0000  0.0000  0.0000      0.0000  0.0000  0.0000  0.0000  0.0000  0.0000  0.0000  0.0000  0.0000  0.0000
  o =  0.5927  v =  0.0000  0.0000  0.0000  0.0000  0.0000  0.0000  0.0000  0.0000  1.0000  0.0000      0.0000  0.0000  0.0000  0.0000  0.0000  0.0000  0.0000  0.0000  0.0000  0.0000
  o =  0.5927  v =  0.0000  0.0000  0.0000  0.0000  0.0000  0.0000  0.0000  0.0000  0.0000  1.0000      0.0000  0.0000  0.0000  0.0000  0.0000  0.0000  0.0000  0.0000  0.0000  0.0000
  o =  1.1008  v =  1.0000  0.0000  0.0000  0.0000  0.0000  0.0000  0.0000  0.0000  0.0000  0.0000      0.0000  0.0000  0.0000  0.0000  0.0000  0.0000  0.0000  0.0000  0.0000  0.0000
  o =  1.1008  v =  0.0000  1.0000  0.0000  0.0000  0.0000  0.0000  0.0000  0.0000  0.0000  0.0000      0.0000  0.0000  0.0000  0.0000  0.0000  0.0000  0.0000  0.0000  0.0000  0.0000
  o =  1.1008  v =  0.0000  0.0000  1.0000  0.0000  0.0000  0.0000  0.0000  0.0000  0.0000  0.0000      0.0000  0.0000  0.0000  0.0000  0.0000  0.0000  0.0000  0.0000  0.0000  0.0000
  o =  1.1008  v =  0.0000  0.0000  0.0000  1.0000  0.0000  0.0000  0.0000  0.0000  0.0000  0.0000      0.0000  0.0000  0.0000  0.0000  0.0000  0.0000  0.0000  0.0000  0.0000  0.0000
  o =  1.1008  v =  0.0000  0.0000  0.0000  0.0000  1.0000  0.0000  0.0000  0.0000  0.0000  0.0000      0.0000  0.0000  0.0000  0.0000  0.0000  0.0000  0.0000  0.0000  0.0000  0.0000
atom =  10  type =  3  l = 2
 
 onsite density matrix
 
spin component  1
 
  1.1008  0.0000  0.0000  0.0000  0.0000
  0.0000  1.1008  0.0000  0.0000  0.0000
  0.0000  0.0000  1.1008  0.0000  0.0000
  0.0000  0.0000  0.0000  1.1008  0.0000
  0.0000  0.0000  0.0000  0.0000  1.1008
 
spin component  2
 
  0.5927  0.0000  0.0000  0.0000  0.0000
  0.0000  0.5927  0.0000  0.0000  0.0000
  0.0000  0.0000  0.5927  0.0000  0.0000
  0.0000  0.0000  0.0000  0.5927  0.0000
  0.0000  0.0000  0.0000  0.0000  0.5927
 
 occupancies and eigenvectors
 
  o =  0.5927  v =  0.0000  0.0000  0.0000  0.0000  0.0000  1.0000  0.0000  0.0000  0.0000  0.0000      0.0000  0.0000  0.0000  0.0000  0.0000  0.0000  0.0000  0.0000  0.0000  0.0000
  o =  0.5927  v =  0.0000  0.0000  0.0000  0.0000  0.0000  0.0000  1.0000  0.0000  0.0000  0.0000      0.0000  0.0000  0.0000  0.0000  0.0000  0.0000  0.0000  0.0000  0.0000  0.0000
  o =  0.5927  v =  0.0000  0.0000  0.0000  0.0000  0.0000  0.0000  0.0000  1.0000  0.0000  0.0000      0.0000  0.0000  0.0000  0.0000  0.0000  0.0000  0.0000  0.0000  0.0000  0.0000
  o =  0.5927  v =  0.0000  0.0000  0.0000  0.0000  0.0000  0.0000  0.0000  0.0000  1.0000  0.0000      0.0000  0.0000  0.0000  0.0000  0.0000  0.0000  0.0000  0.0000  0.0000  0.0000
  o =  0.5927  v =  0.0000  0.0000  0.0000  0.0000  0.0000  0.0000  0.0000  0.0000  0.0000  1.0000      0.0000  0.0000  0.0000  0.0000  0.0000  0.0000  0.0000  0.0000  0.0000  0.0000
  o =  1.1008  v =  1.0000  0.0000  0.0000  0.0000  0.0000  0.0000  0.0000  0.0000  0.0000  0.0000      0.0000  0.0000  0.0000  0.0000  0.0000  0.0000  0.0000  0.0000  0.0000  0.0000
  o =  1.1008  v =  0.0000  1.0000  0.0000  0.0000  0.0000  0.0000  0.0000  0.0000  0.0000  0.0000      0.0000  0.0000  0.0000  0.0000  0.0000  0.0000  0.0000  0.0000  0.0000  0.0000
  o =  1.1008  v =  0.0000  0.0000  1.0000  0.0000  0.0000  0.0000  0.0000  0.0000  0.0000  0.0000      0.0000  0.0000  0.0000  0.0000  0.0000  0.0000  0.0000  0.0000  0.0000  0.0000
  o =  1.1008  v =  0.0000  0.0000  0.0000  1.0000  0.0000  0.0000  0.0000  0.0000  0.0000  0.0000      0.0000  0.0000  0.0000  0.0000  0.0000  0.0000  0.0000  0.0000  0.0000  0.0000
  o =  1.1008  v =  0.0000  0.0000  0.0000  0.0000  1.0000  0.0000  0.0000  0.0000  0.0000  0.0000      0.0000  0.0000  0.0000  0.0000  0.0000  0.0000  0.0000  0.0000  0.0000  0.0000
atom =  11  type =  3  l = 2
 
 onsite density matrix
 
spin component  1
 
  1.1008  0.0000  0.0000  0.0000  0.0000
  0.0000  1.1008  0.0000  0.0000  0.0000
  0.0000  0.0000  1.1008  0.0000  0.0000
  0.0000  0.0000  0.0000  1.1008  0.0000
  0.0000  0.0000  0.0000  0.0000  1.1008
 
spin component  2
 
  0.5927  0.0000  0.0000  0.0000  0.0000
  0.0000  0.5927  0.0000  0.0000  0.0000
  0.0000  0.0000  0.5927  0.0000  0.0000
  0.0000  0.0000  0.0000  0.5927  0.0000
  0.0000  0.0000  0.0000  0.0000  0.5927
 
 occupancies and eigenvectors
 
  o =  0.5927  v =  0.0000  0.0000  0.0000  0.0000  0.0000  1.0000  0.0000  0.0000  0.0000  0.0000      0.0000  0.0000  0.0000  0.0000  0.0000  0.0000  0.0000  0.0000  0.0000  0.0000
  o =  0.5927  v =  0.0000  0.0000  0.0000  0.0000  0.0000  0.0000  1.0000  0.0000  0.0000  0.0000      0.0000  0.0000  0.0000  0.0000  0.0000  0.0000  0.0000  0.0000  0.0000  0.0000
  o =  0.5927  v =  0.0000  0.0000  0.0000  0.0000  0.0000  0.0000  0.0000  1.0000  0.0000  0.0000      0.0000  0.0000  0.0000  0.0000  0.0000  0.0000  0.0000  0.0000  0.0000  0.0000
  o =  0.5927  v =  0.0000  0.0000  0.0000  0.0000  0.0000  0.0000  0.0000  0.0000  1.0000  0.0000      0.0000  0.0000  0.0000  0.0000  0.0000  0.0000  0.0000  0.0000  0.0000  0.0000
  o =  0.5927  v =  0.0000  0.0000  0.0000  0.0000  0.0000  0.0000  0.0000  0.0000  0.0000  1.0000      0.0000  0.0000  0.0000  0.0000  0.0000  0.0000  0.0000  0.0000  0.0000  0.0000
  o =  1.1008  v =  1.0000  0.0000  0.0000  0.0000  0.0000  0.0000  0.0000  0.0000  0.0000  0.0000      0.0000  0.0000  0.0000  0.0000  0.0000  0.0000  0.0000  0.0000  0.0000  0.0000
  o =  1.1008  v =  0.0000  1.0000  0.0000  0.0000  0.0000  0.0000  0.0000  0.0000  0.0000  0.0000      0.0000  0.0000  0.0000  0.0000  0.0000  0.0000  0.0000  0.0000  0.0000  0.0000
  o =  1.1008  v =  0.0000  0.0000  1.0000  0.0000  0.0000  0.0000  0.0000  0.0000  0.0000  0.0000      0.0000  0.0000  0.0000  0.0000  0.0000  0.0000  0.0000  0.0000  0.0000  0.0000
  o =  1.1008  v =  0.0000  0.0000  0.0000  1.0000  0.0000  0.0000  0.0000  0.0000  0.0000  0.0000      0.0000  0.0000  0.0000  0.0000  0.0000  0.0000  0.0000  0.0000  0.0000  0.0000
  o =  1.1008  v =  0.0000  0.0000  0.0000  0.0000  1.0000  0.0000  0.0000  0.0000  0.0000  0.0000      0.0000  0.0000  0.0000  0.0000  0.0000  0.0000  0.0000  0.0000  0.0000  0.0000
atom =  12  type =  3  l = 2
 
 onsite density matrix
 
spin component  1
 
  1.1008  0.0000  0.0000  0.0000  0.0000
  0.0000  1.1008  0.0000  0.0000  0.0000
  0.0000  0.0000  1.1008  0.0000  0.0000
  0.0000  0.0000  0.0000  1.1008  0.0000
  0.0000  0.0000  0.0000  0.0000  1.1008
 
spin component  2
 
  0.5927  0.0000  0.0000  0.0000  0.0000
  0.0000  0.5927  0.0000  0.0000  0.0000
  0.0000  0.0000  0.5927  0.0000  0.0000
  0.0000  0.0000  0.0000  0.5927  0.0000
  0.0000  0.0000  0.0000  0.0000  0.5927
 
 occupancies and eigenvectors
 
  o =  0.5927  v =  0.0000  0.0000  0.0000  0.0000  0.0000  1.0000  0.0000  0.0000  0.0000  0.0000      0.0000  0.0000  0.0000  0.0000  0.0000  0.0000  0.0000  0.0000  0.0000  0.0000
  o =  0.5927  v =  0.0000  0.0000  0.0000  0.0000  0.0000  0.0000  1.0000  0.0000  0.0000  0.0000      0.0000  0.0000  0.0000  0.0000  0.0000  0.0000  0.0000  0.0000  0.0000  0.0000
  o =  0.5927  v =  0.0000  0.0000  0.0000  0.0000  0.0000  0.0000  0.0000  1.0000  0.0000  0.0000      0.0000  0.0000  0.0000  0.0000  0.0000  0.0000  0.0000  0.0000  0.0000  0.0000
  o =  0.5927  v =  0.0000  0.0000  0.0000  0.0000  0.0000  0.0000  0.0000  0.0000  1.0000  0.0000      0.0000  0.0000  0.0000  0.0000  0.0000  0.0000  0.0000  0.0000  0.0000  0.0000
  o =  0.5927  v =  0.0000  0.0000  0.0000  0.0000  0.0000  0.0000  0.0000  0.0000  0.0000  1.0000      0.0000  0.0000  0.0000  0.0000  0.0000  0.0000  0.0000  0.0000  0.0000  0.0000
  o =  1.1008  v =  1.0000  0.0000  0.0000  0.0000  0.0000  0.0000  0.0000  0.0000  0.0000  0.0000      0.0000  0.0000  0.0000  0.0000  0.0000  0.0000  0.0000  0.0000  0.0000  0.0000
  o =  1.1008  v =  0.0000  1.0000  0.0000  0.0000  0.0000  0.0000  0.0000  0.0000  0.0000  0.0000      0.0000  0.0000  0.0000  0.0000  0.0000  0.0000  0.0000  0.0000  0.0000  0.0000
  o =  1.1008  v =  0.0000  0.0000  1.0000  0.0000  0.0000  0.0000  0.0000  0.0000  0.0000  0.0000      0.0000  0.0000  0.0000  0.0000  0.0000  0.0000  0.0000  0.0000  0.0000  0.0000
  o =  1.1008  v =  0.0000  0.0000  0.0000  1.0000  0.0000  0.0000  0.0000  0.0000  0.0000  0.0000      0.0000  0.0000  0.0000  0.0000  0.0000  0.0000  0.0000  0.0000  0.0000  0.0000
  o =  1.1008  v =  0.0000  0.0000  0.0000  0.0000  1.0000  0.0000  0.0000  0.0000  0.0000  0.0000      0.0000  0.0000  0.0000  0.0000  0.0000  0.0000  0.0000  0.0000  0.0000  0.0000
atom =  13  type =  4  l = 0
 
 onsite density matrix
 
spin component  1
 
  0.8190
 
spin component  2
 
  0.8190
 
 occupancies and eigenvectors
 
  o =  0.8190  v =  1.0000  0.0000      0.0000  0.0000
  o =  0.8190  v =  0.0000  1.0000      0.0000  0.0000
atom =  14  type =  4  l = 0
 
 onsite density matrix
 
spin component  1
 
  0.8190
 
spin component  2
 
  0.8190
 
 occupancies and eigenvectors
 
  o =  0.8190  v =  1.0000  0.0000      0.0000  0.0000
  o =  0.8190  v =  0.0000  1.0000      0.0000  0.0000
atom =  15  type =  4  l = 0
 
 onsite density matrix
 
spin component  1
 
  0.8190
 
spin component  2
 
  0.8190
 
 occupancies and eigenvectors
 
  o =  0.8190  v =  1.0000  0.0000      0.0000  0.0000
  o =  0.8190  v =  0.0000  1.0000      0.0000  0.0000
atom =  16  type =  4  l = 0
 
 onsite density matrix
 
spin component  1
 
  0.8190
 
spin component  2
 
  0.8190
 
 occupancies and eigenvectors
 
  o =  0.8190  v =  1.0000  0.0000      0.0000  0.0000
  o =  0.8190  v =  0.0000  1.0000      0.0000  0.0000
atom =  17  type =  4  l = 0
 
 onsite density matrix
 
spin component  1
 
  0.8190
 
spin component  2
 
  0.8190
 
 occupancies and eigenvectors
 
  o =  0.8190  v =  1.0000  0.0000      0.0000  0.0000
  o =  0.8190  v =  0.0000  1.0000      0.0000  0.0000
atom =  18  type =  4  l = 0
 
 onsite density matrix
 
spin component  1
 
  0.8190
 
spin component  2
 
  0.8190
 
 occupancies and eigenvectors
 
  o =  0.8190  v =  1.0000  0.0000      0.0000  0.0000
  o =  0.8190  v =  0.0000  1.0000      0.0000  0.0000
atom =  19  type =  4  l = 0
 
 onsite density matrix
 
spin component  1
 
  0.8190
 
spin component  2
 
  0.8190
 
 occupancies and eigenvectors
 
  o =  0.8190  v =  1.0000  0.0000      0.0000  0.0000
  o =  0.8190  v =  0.0000  1.0000      0.0000  0.0000
atom =  20  type =  4  l = 0
 
 onsite density matrix
 
spin component  1
 
  0.8190
 
spin component  2
 
  0.8190
 
 occupancies and eigenvectors
 
  o =  0.8190  v =  1.0000  0.0000      0.0000  0.0000
  o =  0.8190  v =  0.0000  1.0000      0.0000  0.0000
atom =  21  type =  4  l = 0
 
 onsite density matrix
 
spin component  1
 
  0.8190
 
spin component  2
 
  0.8190
 
 occupancies and eigenvectors
 
  o =  0.8190  v =  1.0000  0.0000      0.0000  0.0000
  o =  0.8190  v =  0.0000  1.0000      0.0000  0.0000
atom =  22  type =  4  l = 0
 
 onsite density matrix
 
spin component  1
 
  0.8190
 
spin component  2
 
  0.8190
 
 occupancies and eigenvectors
 
  o =  0.8190  v =  1.0000  0.0000      0.0000  0.0000
  o =  0.8190  v =  0.0000  1.0000      0.0000  0.0000
atom =  23  type =  4  l = 0
 
 onsite density matrix
 
spin component  1
 
  0.8190
 
spin component  2
 
  0.8190
 
 occupancies and eigenvectors
 
  o =  0.8190  v =  1.0000  0.0000      0.0000  0.0000
  o =  0.8190  v =  0.0000  1.0000      0.0000  0.0000
atom =  24  type =  4  l = 0
 
 onsite density matrix
 
spin component  1
 
  0.8190
 
spin component  2
 
  0.8190
 
 occupancies and eigenvectors
 
  o =  0.8190  v =  1.0000  0.0000      0.0000  0.0000
  o =  0.8190  v =  0.0000  1.0000      0.0000  0.0000
atom =  25  type =  4  l = 0
 
 onsite density matrix
 
spin component  1
 
  0.8190
 
spin component  2
 
  0.8190
 
 occupancies and eigenvectors
 
  o =  0.8190  v =  1.0000  0.0000      0.0000  0.0000
  o =  0.8190  v =  0.0000  1.0000      0.0000  0.0000
atom =  26  type =  4  l = 0
 
 onsite density matrix
 
spin component  1
 
  0.8190
 
spin component  2
 
  0.8190
 
 occupancies and eigenvectors
 
  o =  0.8190  v =  1.0000  0.0000      0.0000  0.0000
  o =  0.8190  v =  0.0000  1.0000      0.0000  0.0000
atom =  27  type =  4  l = 0
 
 onsite density matrix
 
spin component  1
 
  0.8190
 
spin component  2
 
  0.8190
 
 occupancies and eigenvectors
 
  o =  0.8190  v =  1.0000  0.0000      0.0000  0.0000
  o =  0.8190  v =  0.0000  1.0000      0.0000  0.0000
atom =  28  type =  4  l = 0
 
 onsite density matrix
 
spin component  1
 
  0.8190
 
spin component  2
 
  0.8190
 
 occupancies and eigenvectors
 
  o =  0.8190  v =  1.0000  0.0000      0.0000  0.0000
  o =  0.8190  v =  0.0000  1.0000      0.0000  0.0000
atom =  29  type =  4  l = 0
 
 onsite density matrix
 
spin component  1
 
  0.8190
 
spin component  2
 
  0.8190
 
 occupancies and eigenvectors
 
  o =  0.8190  v =  1.0000  0.0000      0.0000  0.0000
  o =  0.8190  v =  0.0000  1.0000      0.0000  0.0000
atom =  30  type =  4  l = 0
 
 onsite density matrix
 
spin component  1
 
  0.8190
 
spin component  2
 
  0.8190
 
 occupancies and eigenvectors
 
  o =  0.8190  v =  1.0000  0.0000      0.0000  0.0000
  o =  0.8190  v =  0.0000  1.0000      0.0000  0.0000
     EDDAV:  cpu time    3.5227: real time    3.5383
 BZINTS: Fermi energy: 33.600476;231.000000 electrons
         Band energy:3537.620602;  BLOECHL correction: -0.312397
       DOS:  cpu time    0.0261: real time    0.0262
    --------------------------------------------
      LOOP:  cpu time    3.6349: real time    3.6524

 eigenvalue-minimisations  :  6276
 total energy-change (2. order) : 0.3620230E+04  (-0.8113135E+04)
 number of electron     231.0000000 magnetization      19.0000000
 augmentation part      231.0000000 magnetization      19.0000000

 Free energy of the ion-electron system (eV)
  ---------------------------------------------------
  alpha Z        PSCENC =       994.65638415
  Ewald energy   TEWEN  =    -16412.21839283
  -Hartree energ DENC   =     -3905.26392146
  -exchange      EXHF   =         0.00000000
  -V(xc)+E(xc)   XCENC  =       840.95645953
  PAW double counting   =     15315.83226627   -15534.75522903
  entropy T*S    EENTRO =         0.00000000
  eigenvalues    EBANDS =      3537.62060170
  atomic energy  EATOM  =     18783.40221373
  Solvation  Ediel_sol  =         0.00000000
  ---------------------------------------------------
  free energy    TOTEN  =      3620.23038206 eV

  energy without entropy =     3620.23038206  energy(sigma->0) =     3620.23038206


--------------------------------------------------------------------------------------------------------




--------------------------------------- Iteration      1(   2)  ---------------------------------------


     EDDAV:  cpu time    3.5549: real time    3.5712
 BZINTS: Fermi energy: 16.837678;231.000000 electrons
         Band energy:1171.890082;  BLOECHL correction: -0.047165
       DOS:  cpu time    0.0288: real time    0.0288
    --------------------------------------------
      LOOP:  cpu time    3.5837: real time    3.6001

 eigenvalue-minimisations  :  6536
 total energy-change (2. order) :-0.2365731E+04  (-0.2142926E+04)
 number of electron     231.0000000 magnetization      19.0000000
 augmentation part      231.0000000 magnetization      19.0000000

 Free energy of the ion-electron system (eV)
  ---------------------------------------------------
  alpha Z        PSCENC =       994.65638415
  Ewald energy   TEWEN  =    -16412.21839283
  -Hartree energ DENC   =     -3905.26392146
  -exchange      EXHF   =         0.00000000
  -V(xc)+E(xc)   XCENC  =       840.95645953
  PAW double counting   =     15315.83226627   -15534.75522903
  entropy T*S    EENTRO =         0.00000000
  eigenvalues    EBANDS =      1171.89008238
  atomic energy  EATOM  =     18783.40221373
  Solvation  Ediel_sol  =         0.00000000
  ---------------------------------------------------
  free energy    TOTEN  =      1254.49986273 eV

  energy without entropy =     1254.49986273  energy(sigma->0) =     1254.49986273


--------------------------------------------------------------------------------------------------------




--------------------------------------- Iteration      1(   3)  ---------------------------------------


     EDDAV:  cpu time    3.6727: real time    3.6911
 BZINTS: Fermi energy: 12.582594;231.000000 electrons
         Band energy: 183.023618;  BLOECHL correction: -0.031665
       DOS:  cpu time    0.0273: real time    0.0276
    --------------------------------------------
      LOOP:  cpu time    3.7000: real time    3.7187

 eigenvalue-minimisations  :  6408
 total energy-change (2. order) :-0.9888665E+03  (-0.8764081E+03)
 number of electron     231.0000000 magnetization      19.0000000
 augmentation part      231.0000000 magnetization      19.0000000

 Free energy of the ion-electron system (eV)
  ---------------------------------------------------
  alpha Z        PSCENC =       994.65638415
  Ewald energy   TEWEN  =    -16412.21839283
  -Hartree energ DENC   =     -3905.26392146
  -exchange      EXHF   =         0.00000000
  -V(xc)+E(xc)   XCENC  =       840.95645953
  PAW double counting   =     15315.83226627   -15534.75522903
  entropy T*S    EENTRO =         0.00000000
  eigenvalues    EBANDS =       183.02361850
  atomic energy  EATOM  =     18783.40221373
  Solvation  Ediel_sol  =         0.00000000
  ---------------------------------------------------
  free energy    TOTEN  =       265.63339885 eV

  energy without entropy =      265.63339885  energy(sigma->0) =      265.63339885


--------------------------------------------------------------------------------------------------------




--------------------------------------- Iteration      1(   4)  ---------------------------------------


     EDDAV:  cpu time    4.7320: real time    4.7508
 BZINTS: Fermi energy: 11.922964;231.000000 electrons
         Band energy:-234.189171;  BLOECHL correction: -0.009101
       DOS:  cpu time    0.0287: real time    0.0288
    --------------------------------------------
      LOOP:  cpu time    4.7607: real time    4.7796

 eigenvalue-minimisations  :  9252
 total energy-change (2. order) :-0.4172128E+03  (-0.3956141E+03)
 number of electron     231.0000000 magnetization      19.0000000
 augmentation part      231.0000000 magnetization      19.0000000

 Free energy of the ion-electron system (eV)
  ---------------------------------------------------
  alpha Z        PSCENC =       994.65638415
  Ewald energy   TEWEN  =    -16412.21839283
  -Hartree energ DENC   =     -3905.26392146
  -exchange      EXHF   =         0.00000000
  -V(xc)+E(xc)   XCENC  =       840.95645953
  PAW double counting   =     15315.83226627   -15534.75522903
  entropy T*S    EENTRO =         0.00000000
  eigenvalues    EBANDS =      -234.18917055
  atomic energy  EATOM  =     18783.40221373
  Solvation  Ediel_sol  =         0.00000000
  ---------------------------------------------------
  free energy    TOTEN  =      -151.57939020 eV

  energy without entropy =     -151.57939020  energy(sigma->0) =     -151.57939020


--------------------------------------------------------------------------------------------------------




--------------------------------------- Iteration      1(   5)  ---------------------------------------


     EDDAV:  cpu time    5.5428: real time    5.5716
 BZINTS: Fermi energy: 11.410156;231.000000 electrons
         Band energy:-320.586081;  BLOECHL correction: -0.018027
       DOS:  cpu time    0.0285: real time    0.0286
    CHARGE:  cpu time    0.1925: real time    0.1935
    MIXING:  cpu time    0.0186: real time    0.0187
    --------------------------------------------
      LOOP:  cpu time    5.7824: real time    5.8123

 eigenvalue-minimisations  : 11056
 total energy-change (2. order) :-0.8639691E+02  (-0.8305456E+02)
 number of electron     231.0000063 magnetization      17.8219745
 augmentation part       33.5581821 magnetization      13.7507500

 Broyden mixing:
  rms(total) = 0.88036E+01    rms(broyden)= 0.88032E+01
  rms(prec ) = 0.10264E+02
  weight for this iteration     100.00

 Free energy of the ion-electron system (eV)
  ---------------------------------------------------
  alpha Z        PSCENC =       994.65638415
  Ewald energy   TEWEN  =    -16412.21839283
  -Hartree energ DENC   =     -3905.26392146
  -exchange      EXHF   =         0.00000000
  -V(xc)+E(xc)   XCENC  =       840.95645953
  PAW double counting   =     15315.83226627   -15534.75522903
  entropy T*S    EENTRO =         0.00000000
  eigenvalues    EBANDS =      -320.58608076
  atomic energy  EATOM  =     18783.40221373
  Solvation  Ediel_sol  =         0.00000000
  ---------------------------------------------------
  free energy    TOTEN  =      -237.97630041 eV

  energy without entropy =     -237.97630041  energy(sigma->0) =     -237.97630041


--------------------------------------------------------------------------------------------------------




--------------------------------------- Iteration      1(   6)  ---------------------------------------


    POTLOK:  cpu time    0.0655: real time    0.0954
    SETDIJ:  cpu time    0.0098: real time    0.0162
atom =   1  type =  1  l = 0
 
 onsite density matrix
 
spin component  1
 
  1.0569
 
spin component  2
 
  1.0567
 
 occupancies and eigenvectors
 
  o =  1.0567  v =  0.0000  1.0000      0.0000  0.0000
  o =  1.0569  v =  1.0000  0.0000      0.0000  0.0000
atom =   2  type =  1  l = 0
 
 onsite density matrix
 
spin component  1
 
  1.0564
 
spin component  2
 
  1.0563
 
 occupancies and eigenvectors
 
  o =  1.0563  v =  0.0000  1.0000      0.0000  0.0000
  o =  1.0564  v =  1.0000  0.0000      0.0000  0.0000
atom =   3  type =  1  l = 0
 
 onsite density matrix
 
spin component  1
 
  1.0569
 
spin component  2
 
  1.0567
 
 occupancies and eigenvectors
 
  o =  1.0567  v =  0.0000  1.0000      0.0000  0.0000
  o =  1.0569  v =  1.0000  0.0000      0.0000  0.0000
atom =   4  type =  1  l = 0
 
 onsite density matrix
 
spin component  1
 
  1.0569
 
spin component  2
 
  1.0567
 
 occupancies and eigenvectors
 
  o =  1.0567  v =  0.0000  1.0000      0.0000  0.0000
  o =  1.0569  v =  1.0000  0.0000      0.0000  0.0000
atom =   5  type =  1  l = 0
 
 onsite density matrix
 
spin component  1
 
  1.0564
 
spin component  2
 
  1.0563
 
 occupancies and eigenvectors
 
  o =  1.0563  v =  0.0000  1.0000      0.0000  0.0000
  o =  1.0564  v =  1.0000  0.0000      0.0000  0.0000
atom =   6  type =  1  l = 0
 
 onsite density matrix
 
spin component  1
 
  1.0569
 
spin component  2
 
  1.0567
 
 occupancies and eigenvectors
 
  o =  1.0567  v =  0.0000  1.0000      0.0000  0.0000
  o =  1.0569  v =  1.0000  0.0000      0.0000  0.0000
atom =   7  type =  2  l = 2
 
 onsite density matrix
 
spin component  1
 
  0.9535  0.0015 -0.0000  0.0000 -0.0000
  0.0015  0.9535 -0.0000 -0.0000 -0.0000
 -0.0000 -0.0000  0.3513 -0.0004 -0.0027
  0.0000 -0.0000 -0.0004  0.9611 -0.0008
 -0.0000 -0.0000 -0.0027 -0.0008  0.3482
 
spin component  2
 
  0.0386 -0.0011  0.0000 -0.0000  0.0000
 -0.0011  0.0386 -0.0000  0.0000  0.0000
  0.0000 -0.0000  0.4552  0.0001  0.0017
 -0.0000  0.0000  0.0001  0.0343  0.0001
  0.0000  0.0000  0.0017  0.0001  0.4572
 
 occupancies and eigenvectors
 
  o =  0.0343  v =  0.0000  0.0000  0.0000  0.0000  0.0000  0.0000  0.0000  0.0002 -1.0000  0.0003      0.0000  0.0000  0.0000  0.0000  0.0000  0.0000  0.0000  0.0000  0.0000  0.0000
  o =  0.0375  v =  0.0000  0.0000  0.0000  0.0000  0.0000 -0.7071 -0.7071  0.0000 -0.0000  0.0000      0.0000  0.0000  0.0000  0.0000  0.0000  0.0000  0.0000  0.0000  0.0000  0.0000
  o =  0.0397  v =  0.0000  0.0000  0.0000  0.0000  0.0000  0.7071 -0.7071  0.0000 -0.0000  0.0000      0.0000  0.0000  0.0000  0.0000  0.0000  0.0000  0.0000  0.0000  0.0000  0.0000
  o =  0.3466  v =  0.0000 -0.0000 -0.5000 -0.0014 -0.8660  0.0000  0.0000  0.0000  0.0000  0.0000      0.0000  0.0000  0.0000  0.0000  0.0000  0.0000  0.0000  0.0000  0.0000  0.0000
  o =  0.3528  v =  0.0000  0.0000  0.8660 -0.0000 -0.5000  0.0000  0.0000  0.0000  0.0000  0.0000      0.0000  0.0000  0.0000  0.0000  0.0000  0.0000  0.0000  0.0000  0.0000  0.0000
  o =  0.4542  v =  0.0000  0.0000  0.0000  0.0000  0.0000  0.0000 -0.0000  0.8660 -0.0000 -0.5000      0.0000  0.0000  0.0000  0.0000  0.0000  0.0000  0.0000  0.0000  0.0000  0.0000
  o =  0.4582  v =  0.0000  0.0000  0.0000  0.0000  0.0000  0.0000 -0.0000 -0.5000 -0.0003 -0.8660      0.0000  0.0000  0.0000  0.0000  0.0000  0.0000  0.0000  0.0000  0.0000  0.0000
  o =  0.9520  v = -0.7071  0.7071 -0.0000  0.0000 -0.0000  0.0000  0.0000  0.0000  0.0000  0.0000      0.0000  0.0000  0.0000  0.0000  0.0000  0.0000  0.0000  0.0000  0.0000  0.0000
  o =  0.9550  v = -0.7071 -0.7071  0.0000 -0.0000  0.0000  0.0000  0.0000  0.0000  0.0000  0.0000      0.0000  0.0000  0.0000  0.0000  0.0000  0.0000  0.0000  0.0000  0.0000  0.0000
  o =  0.9611  v =  0.0000 -0.0000 -0.0007  1.0000 -0.0013  0.0000  0.0000  0.0000  0.0000  0.0000      0.0000  0.0000  0.0000  0.0000  0.0000  0.0000  0.0000  0.0000  0.0000  0.0000
atom =   8  type =  3  l = 2
 
 onsite density matrix
 
spin component  1
 
  1.0075 -0.0052  0.0000  0.0000  0.0000
 -0.0052  1.0075  0.0000 -0.0000  0.0000
  0.0000  0.0000  1.3320 -0.0014 -0.0009
  0.0000 -0.0000 -0.0014  0.9841 -0.0024
  0.0000  0.0000 -0.0009 -0.0024  1.3309
 
spin component  2
 
  0.6269  0.0088 -0.0000  0.0000 -0.0000
  0.0088  0.6269 -0.0000  0.0000 -0.0000
 -0.0000 -0.0000  0.1918  0.0023  0.0010
  0.0000  0.0000  0.0023  0.6665  0.0040
 -0.0000 -0.0000  0.0010  0.0040  0.1930
 
 occupancies and eigenvectors
 
  o =  0.1913  v =  0.0000  0.0000  0.0000  0.0000  0.0000  0.0000 -0.0000 -0.8660 -0.0000  0.5000      0.0000  0.0000  0.0000  0.0000  0.0000  0.0000  0.0000  0.0000  0.0000  0.0000
[...]
 -0.000  -0.001  -0.000  -0.000  -0.000  -0.000  -0.000   0.000   0.000  -0.001  -0.001   0.002   0.000  -0.000   0.000   0.000
 -0.000  -0.000   0.000  -0.000   0.000  -0.000   0.000   0.000   0.001  -0.000   0.001   0.000   0.000  -0.000   0.000  -0.000
 -0.000  -0.000  -0.000   0.000  -0.000   0.000   0.000   0.000   0.000   0.001  -0.000   0.001  -0.001  -0.000  -0.000   0.000
  0.000   0.001   0.000  -0.000  -0.000   0.000   0.000  -0.000  -0.000   0.000   0.000  -0.002   0.001   0.000  -0.000  -0.000
  0.000  -0.001  -0.000   0.000   0.000  -0.000  -0.000   0.000   0.001  -0.002  -0.001   0.000   0.002  -0.000   0.001   0.000
 -0.000   0.003  -0.000  -0.000   0.000   0.000   0.000  -0.000  -0.003   0.003   0.000  -0.002   0.000   0.001  -0.001  -0.000
  0.000  -0.001  -0.000  -0.000  -0.000  -0.000   0.000   0.000   0.002  -0.001   0.002   0.000  -0.000  -0.001   0.000  -0.001
  0.000   0.001  -0.000   0.000   0.000   0.000   0.000  -0.000  -0.000   0.002   0.001  -0.002  -0.000   0.000  -0.001  -0.000
  0.000   0.001  -0.000   0.000  -0.000   0.000  -0.000  -0.000  -0.002  -0.000  -0.002  -0.001  -0.000   0.001  -0.000   0.001
  0.000   0.000   0.000  -0.000   0.000  -0.000  -0.000  -0.000  -0.000  -0.001   0.000  -0.001   0.002   0.000   0.001  -0.000
 -0.000  -0.001  -0.000   0.000   0.000  -0.000  -0.000  -0.000   0.000  -0.000  -0.000   0.003  -0.001  -0.000   0.000   0.000


------------------------ aborting loop because EDIFF is reached ----------------------------------------


 


 total charge     
 
# of ion       s       p       d       f       tot
--------------------------------------------------
    1        2.000   5.702   0.498   0.193   8.392
    2        2.000   5.702   0.499   0.194   8.395
    3        2.000   5.701   0.498   0.193   8.392
    4        2.000   5.702   0.498   0.193   8.392
    5        2.000   5.702   0.499   0.194   8.395
    6        2.001   5.702   0.498   0.193   8.393
    7        0.359   0.573   4.865   0.000   5.797
    8        0.434   0.659   8.317   0.000   9.410
    9        0.421   0.626   8.315   0.000   9.362
   10        0.417   0.621   8.321   0.000   9.359
   11        0.421   0.626   8.315   0.000   9.362
   12        0.434   0.659   8.317   0.000   9.410
   13        1.562   3.458   0.000   0.000   5.020
   14        1.563   3.438   0.000   0.000   5.001
   15        1.562   3.458   0.000   0.000   5.020
   16        1.562   3.443   0.000   0.000   5.004
   17        1.564   3.435   0.000   0.000   4.999
   18        1.562   3.443   0.000   0.000   5.004
   19        1.563   3.458   0.000   0.000   5.021
   20        1.562   3.435   0.000   0.000   4.997
   21        1.562   3.435   0.000   0.000   4.997
   22        1.563   3.458   0.000   0.000   5.021
   23        1.562   3.437   0.000   0.000   4.999
   24        1.562   3.437   0.000   0.000   4.999
   25        1.563   3.455   0.000   0.000   5.017
   26        1.562   3.434   0.000   0.000   4.996
   27        1.564   3.415   0.000   0.000   4.980
   28        1.562   3.434   0.000   0.000   4.996
   29        1.563   3.455   0.000   0.000   5.017
   30        1.564   3.434   0.000   0.000   4.997
--------------------------------------------------
tot         42.614  99.935  49.440   1.161 193.150

 


 magnetization (x)
 
# of ion       s       p       d       f       tot
--------------------------------------------------
    1        0.000  -0.000   0.006   0.003   0.009
    2        0.001   0.000   0.006   0.003   0.010
    3        0.000  -0.000   0.006   0.003   0.009
    4        0.000  -0.000   0.006   0.003   0.009
    5        0.001   0.000   0.006   0.003   0.010
    6        0.000  -0.000   0.006   0.003   0.009
    7        0.026   0.032   3.213   0.000   3.271
    8        0.018   0.012   1.314   0.000   1.345
    9        0.014   0.003   1.426   0.000   1.443
   10        0.013   0.005   1.464   0.000   1.482
   11        0.014   0.003   1.426   0.000   1.443
   12        0.018   0.012   1.314   0.000   1.345
   13        0.004  -0.035   0.000   0.000  -0.031
   14        0.005  -0.094   0.000   0.000  -0.088
   15        0.004  -0.035   0.000   0.000  -0.031
   16        0.005  -0.081   0.000   0.000  -0.076
   17        0.005  -0.122   0.000   0.000  -0.117
   18        0.005  -0.081   0.000   0.000  -0.076
   19        0.005  -0.038   0.000   0.000  -0.034
   20        0.006  -0.087   0.000   0.000  -0.081
   21        0.006  -0.087   0.000   0.000  -0.081
   22        0.005  -0.038   0.000   0.000  -0.034
   23        0.006  -0.084   0.000   0.000  -0.079
   24        0.006  -0.084   0.000   0.000  -0.079
   25        0.004  -0.042   0.000   0.000  -0.037
   26        0.006  -0.092   0.000   0.000  -0.086
   27        0.005  -0.146   0.000   0.000  -0.140
   28        0.006  -0.092   0.000   0.000  -0.086
   29        0.005  -0.041   0.000   0.000  -0.037
   30        0.006  -0.101   0.000   0.000  -0.095
--------------------------------------------------
tot          0.199  -1.314  10.193   0.017   9.096

 
    CHARGE:  cpu time    0.1555: real time    0.1559
    FORLOC:  cpu time    0.0108: real time    0.0108
    FORNL :  cpu time    0.8950: real time    0.8985
    STRESS:  cpu time    2.5950: real time    2.6347
    FORCOR:  cpu time    0.0767: real time    0.0770
    FORHAR:  cpu time    0.0174: real time    0.0175
    MIXING:  cpu time    0.0050: real time    0.0050
    OFIELD:  cpu time    0.0001: real time    0.0002

  FORCE on cell =-STRESS in cart. coord.  units (eV):
  Direction    XX          YY          ZZ          XY          YZ          ZX
  --------------------------------------------------------------------------------------
  Alpha Z   994.65638   994.65638   994.65638
  Ewald   -5460.36890 -5491.53998 -5460.36891    -0.00000    -0.00000     7.13943
  Hartree  1311.80548  1293.68054  1311.80547     0.00000    -0.00000     6.58815
  E(xc)   -1087.38735 -1087.41743 -1087.38732    -0.00000     0.00000    -0.00295
  Local    -849.91018  -805.82314  -849.90920     0.00000     0.00000   -13.50047
  n-local   443.21703   442.72140   442.57103     0.24954     0.37675     0.02645
  augment   778.60656   780.64998   778.60621    -0.00000    -0.00000    -0.00141
  Kinetic  3867.57751  3873.30775  3871.11986    -0.57898    -1.13161    -0.27051
  Fock        0.00000     0.00000     0.00000     0.00000     0.00000     0.00000
  -------------------------------------------------------------------------------------
  Total      -0.35497     0.23552    -0.35497     0.00000     0.00000     0.02744
  in kB      -1.65568     1.09851    -1.65568     0.00000     0.00000     0.12800
  external pressure =       -0.74 kB  Pullay stress =        0.00 kB


 VOLUME and BASIS-vectors are now :
 -----------------------------------------------------------------------------
  energy-cutoff  :      520.00
  volume of cell :      343.50
      direct lattice vectors                 reciprocal lattice vectors
     3.849948480  0.000000000  3.849948480     0.173127903  0.000000000  0.086615833
     0.000000000 -7.718785121  0.000000000     0.000000000 -0.129554066  0.000000000
     3.854566102  0.000000000 -7.704514573     0.086512070  0.000000000 -0.086512070

  length of vectors
     5.444649355  7.718785121  8.614941940     0.193586087  0.129554066  0.122346543


 FORCES acting on ions
    electron-ion (+dipol)            ewald-force                    non-local-force                 convergence-correction
 -----------------------------------------------------------------------------------------------
   0.274E+02 -.339E+02 -.274E+02   -.272E+02 0.338E+02 0.272E+02   -.171E+00 0.160E+00 0.171E+00   0.176E-02 0.475E-02 -.176E-02
   -.182E-03 0.549E+02 -.156E-03   0.172E-03 -.544E+02 -.179E-03   0.000E+00 -.347E+00 0.000E+00   -.190E-05 -.307E-02 0.381E-05
   -.274E+02 -.339E+02 0.274E+02   0.272E+02 0.338E+02 -.272E+02   0.171E+00 0.160E+00 -.171E+00   -.176E-02 0.475E-02 0.176E-02
   0.274E+02 0.339E+02 -.274E+02   -.272E+02 -.338E+02 0.272E+02   -.171E+00 -.160E+00 0.171E+00   0.176E-02 -.475E-02 -.176E-02
   -.182E-03 -.549E+02 -.156E-03   0.172E-03 0.544E+02 -.179E-03   -.217E-18 0.347E+00 0.434E-18   -.190E-05 0.307E-02 0.381E-05
   -.274E+02 0.339E+02 0.274E+02   0.272E+02 -.338E+02 -.272E+02   0.171E+00 -.160E+00 -.171E+00   -.176E-02 -.475E-02 0.176E-02
   0.426E-05 0.657E-13 0.277E-04   0.603E-04 0.662E-14 -.225E-03   0.000E+00 0.000E+00 -.136E-19   -.170E-05 -.570E-13 0.152E-05
   0.745E+01 -.279E-11 -.745E+01   -.775E+01 0.973E-14 0.775E+01   0.288E+00 0.000E+00 -.288E+00   0.124E-02 0.336E-13 -.124E-02
   -.261E+02 -.172E-11 0.261E+02   0.261E+02 -.555E-13 -.261E+02   0.858E-01 0.000E+00 -.858E-01   -.447E-02 -.192E-12 0.447E-02
   0.124E-03 -.643E-12 -.383E-04   0.888E-04 -.295E-13 -.316E-03   0.203E-19 0.000E+00 0.136E-19   -.279E-05 0.475E-13 0.251E-05
   0.261E+02 -.380E-11 -.261E+02   -.261E+02 -.323E-13 0.261E+02   -.858E-01 0.217E-18 0.858E-01   0.447E-02 -.175E-12 -.447E-02
   -.745E+01 0.307E-11 0.745E+01   0.775E+01 -.788E-15 -.775E+01   -.288E+00 0.000E+00 0.288E+00   -.124E-02 0.804E-13 0.124E-02
   0.828E+01 -.147E-12 -.515E+02   -.831E+01 0.266E-13 0.475E+02   0.255E-01 0.000E+00 0.407E+01   0.152E-02 -.603E-13 -.794E-03
   -.999E-04 0.141E-11 -.316E-04   0.583E-05 -.510E-13 -.304E-03   0.102E-19 0.000E+00 0.203E-19   0.149E-05 0.442E-13 -.135E-05
   -.828E+01 -.622E-12 0.515E+02   0.831E+01 0.138E-13 -.475E+02   -.255E-01 0.000E+00 -.407E+01   -.152E-02 -.722E-13 0.796E-03
   0.579E+00 0.501E-12 -.138E+02   -.403E+00 -.758E-14 0.143E+02   -.186E+00 0.000E+00 -.480E+00   0.633E-03 -.135E-13 0.517E-03
   -.985E-04 -.953E-12 -.363E-04   0.517E-05 -.262E-13 -.305E-03   0.000E+00 0.000E+00 0.136E-19   0.136E-05 -.111E-12 -.120E-05
   -.580E+00 -.141E-11 0.138E+02   0.403E+00 0.606E-14 -.143E+02   0.186E+00 0.000E+00 0.480E+00   -.635E-03 0.645E-14 -.515E-03
   -.718E-04 -.559E+02 -.180E-03   0.839E-04 0.516E+02 -.107E-03   -.108E-18 0.435E+01 0.108E-18   -.165E-05 0.200E-02 0.145E-05
   0.966E+01 0.169E+02 -.966E+01   -.980E+01 -.173E+02 0.980E+01   0.178E+00 0.454E+00 -.178E+00   0.127E-02 -.365E-02 -.127E-02
   -.966E+01 -.169E+02 0.966E+01   0.980E+01 0.173E+02 -.980E+01   -.178E+00 -.454E+00 0.178E+00   -.127E-02 0.365E-02 0.127E-02
   -.716E-04 0.559E+02 -.181E-03   0.839E-04 -.516E+02 -.107E-03   -.542E-19 -.435E+01 -.325E-18   -.165E-05 -.200E-02 0.145E-05
   0.966E+01 -.169E+02 -.966E+01   -.980E+01 0.173E+02 0.980E+01   0.178E+00 -.454E+00 -.178E+00   0.127E-02 0.365E-02 -.127E-02
   -.966E+01 0.169E+02 0.966E+01   0.980E+01 -.173E+02 -.980E+01   -.178E+00 0.454E+00 0.178E+00   -.127E-02 -.365E-02 0.127E-02
   -.515E+02 0.529E-12 0.828E+01   0.475E+02 -.376E-14 -.831E+01   0.407E+01 0.000E+00 0.255E-01   -.796E-03 -.759E-13 0.152E-02
   0.138E+02 -.599E-12 -.579E+00   -.143E+02 -.381E-13 0.403E+00   0.480E+00 0.000E+00 0.186E+00   -.517E-03 0.544E-14 -.633E-03
   -.380E-04 -.290E-12 -.309E-03   0.530E-05 0.373E-13 0.405E-04   0.000E+00 0.000E+00 0.610E-19   0.115E-05 -.109E-12 -.131E-05
   -.138E+02 0.178E-12 0.580E+00   0.143E+02 -.237E-13 -.403E+00   -.480E+00 0.000E+00 -.186E+00   0.516E-03 0.135E-13 0.635E-03
   0.515E+02 -.172E-11 -.828E+01   -.475E+02 0.307E-13 0.831E+01   -.407E+01 0.000E+00 -.255E-01   0.794E-03 -.505E-13 -.152E-02
   -.426E-04 -.313E-12 -.303E-03   0.597E-05 0.190E-13 0.361E-04   0.000E+00 0.000E+00 0.271E-19   0.129E-05 0.367E-13 -.143E-05
 -----------------------------------------------------------------------------------------------
   -.274E-02 -.970E-11 0.520E-02   0.106E-13 -.283E-13 0.199E-15   0.000E+00 -.555E-16 0.860E-15   -.103E-04 -.297E-12 0.670E-05
 
 
 POSITION                                       TOTAL-FORCE (eV/Angst)
 -----------------------------------------------------------------------------------
      3.86973     -3.87757     -3.86974         0.041631      0.002133     -0.041631
      3.85149     -7.68456     -0.00154         0.000000      0.062779      0.000000
      7.68781     -3.87757     -3.83786        -0.041631      0.002133      0.041631
      3.86973     -7.70061     -3.86974         0.041631     -0.002133     -0.041631
      3.85149     -3.89362     -0.00154         0.000000     -0.062779      0.000000
      7.68781     -7.70061     -3.83786        -0.041631     -0.002133      0.041631
      1.92651     -1.92970     -1.92651         0.000000     -0.000000      0.000000
      5.77614     -5.78909     -1.92619        -0.013719     -0.000000      0.013719
      1.92539     -1.92970      1.92455         0.016362     -0.000000     -0.016362
      1.92651     -5.78909     -1.92651         0.000000     -0.000000      0.000000
      5.77758     -1.92970     -1.92763        -0.016362     -0.000000      0.016362
      1.92683     -5.78909      1.92311         0.013719     -0.000000     -0.013719
      1.92423     -1.92970     -3.82869        -0.002327     -0.000000      0.005937
      5.77877     -5.78909     -3.85380         0.000000     -0.000000      0.000000
      1.92880     -1.92970     -0.02434         0.002327     -0.000000     -0.005937
      5.77353     -5.78909     -0.00710        -0.008195     -0.000000      0.004357
      5.77877     -1.92970     -3.85380         0.000000     -0.000000      0.000000
      1.92945     -5.78909      0.00403         0.008195     -0.000000     -0.004357
      1.92651     -3.83117     -1.92651         0.000000      0.040747      0.000000
      5.77938     -7.71507     -1.92943         0.032776      0.032767     -0.032776
      5.77816     -3.86311     -5.77816        -0.032776     -0.032767      0.032776
      1.92651     -0.02822     -1.92651         0.000000     -0.040747      0.000000
      5.77938     -3.86311     -1.92943         0.032776     -0.032767     -0.032776
      5.77816     -7.71507     -5.77816        -0.032776      0.032767      0.032776
      3.87429     -1.92970      1.92115         0.005937     -0.000000     -0.002327
      3.85705     -5.78909     -1.92358        -0.004357     -0.000000      0.008195
      3.85380     -1.92970     -5.77877         0.000000     -0.000000      0.000000
      3.84592     -5.78909      1.92050         0.004357     -0.000000     -0.008195
      3.82869     -1.92970     -1.92423        -0.005937     -0.000000      0.002327
      3.85380     -5.78909     -5.77877         0.000000     -0.000000      0.000000
 -----------------------------------------------------------------------------------
    total drift:                               -0.002749     -0.000000      0.005206


--------------------------------------------------------------------------------------------------------



  FREE ENERGIE OF THE ION-ELECTRON SYSTEM (eV)
  ---------------------------------------------------
  free  energy   TOTEN  =      -206.92609901 eV

  energy  without entropy=     -206.92609901  energy(sigma->0) =     -206.92609901
 


--------------------------------------------------------------------------------------------------------


    POTLOK:  cpu time    0.0807: real time    0.0809


--------------------------------------------------------------------------------------------------------


     LOOP+:  cpu time   80.4345: real time   85.2921
    4ORBIT:  cpu time    0.0000: real time    0.0000
 


 total charge     
 
# of ion       s       p       d       f       tot
--------------------------------------------------
    1        2.000   5.702   0.498   0.193   8.392
    2        2.000   5.702   0.499   0.194   8.395
    3        2.000   5.701   0.498   0.193   8.392
    4        2.000   5.702   0.498   0.193   8.392
    5        2.000   5.702   0.499   0.194   8.395
    6        2.001   5.702   0.498   0.193   8.393
    7        0.359   0.573   4.865   0.000   5.797
    8        0.434   0.659   8.317   0.000   9.410
    9        0.421   0.626   8.315   0.000   9.362
   10        0.417   0.621   8.321   0.000   9.359
   11        0.421   0.626   8.315   0.000   9.362
   12        0.434   0.659   8.317   0.000   9.410
   13        1.562   3.458   0.000   0.000   5.020
   14        1.563   3.438   0.000   0.000   5.001
   15        1.562   3.458   0.000   0.000   5.020
   16        1.562   3.443   0.000   0.000   5.004
   17        1.564   3.435   0.000   0.000   4.999
   18        1.562   3.443   0.000   0.000   5.004
   19        1.563   3.458   0.000   0.000   5.021
   20        1.562   3.435   0.000   0.000   4.997
   21        1.562   3.435   0.000   0.000   4.997
   22        1.563   3.458   0.000   0.000   5.021
   23        1.562   3.437   0.000   0.000   4.999
   24        1.562   3.437   0.000   0.000   4.999
   25        1.563   3.455   0.000   0.000   5.017
   26        1.562   3.434   0.000   0.000   4.996
   27        1.564   3.415   0.000   0.000   4.980
   28        1.562   3.434   0.000   0.000   4.996
   29        1.563   3.455   0.000   0.000   5.017
   30        1.564   3.434   0.000   0.000   4.997
--------------------------------------------------
tot         42.614  99.935  49.440   1.161 193.150

 


 magnetization (x)
 
# of ion       s       p       d       f       tot
--------------------------------------------------
    1        0.000  -0.000   0.006   0.003   0.009
    2        0.001   0.000   0.006   0.003   0.010
    3        0.000  -0.000   0.006   0.003   0.009
    4        0.000  -0.000   0.006   0.003   0.009
    5        0.001   0.000   0.006   0.003   0.010
    6        0.000  -0.000   0.006   0.003   0.009
    7        0.026   0.032   3.213   0.000   3.271
    8        0.018   0.012   1.314   0.000   1.345
    9        0.014   0.003   1.426   0.000   1.443
   10        0.013   0.005   1.464   0.000   1.482
   11        0.014   0.003   1.426   0.000   1.443
   12        0.018   0.012   1.314   0.000   1.345
   13        0.004  -0.035   0.000   0.000  -0.031
   14        0.005  -0.094   0.000   0.000  -0.088
   15        0.004  -0.035   0.000   0.000  -0.031
   16        0.005  -0.081   0.000   0.000  -0.076
   17        0.005  -0.122   0.000   0.000  -0.117
   18        0.005  -0.081   0.000   0.000  -0.076
   19        0.005  -0.038   0.000   0.000  -0.034
   20        0.006  -0.087   0.000   0.000  -0.081
   21        0.006  -0.087   0.000   0.000  -0.081
   22        0.005  -0.038   0.000   0.000  -0.034
   23        0.006  -0.084   0.000   0.000  -0.079
   24        0.006  -0.084   0.000   0.000  -0.079
   25        0.004  -0.042   0.000   0.000  -0.037
   26        0.006  -0.092   0.000   0.000  -0.086
   27        0.005  -0.146   0.000   0.000  -0.140
   28        0.006  -0.092   0.000   0.000  -0.086
   29        0.005  -0.041   0.000   0.000  -0.037
   30        0.006  -0.101   0.000   0.000  -0.095
--------------------------------------------------
tot          0.199  -1.314  10.193   0.017   9.096

 
 BZINTS: Fermi energy:  7.479588;231.000000 electrons
         Band energy:-251.567381;  BLOECHL correction: -0.022093

 total amount of memory used by VASP MPI-rank0    70008. kBytes
=======================================================================

   base      :      30000. kBytes
   nonlr-proj:       6556. kBytes
   fftplans  :       2552. kBytes
   grid      :       7211. kBytes
   one-center:        294. kBytes
   wavefun   :      23395. kBytes
 
  
  
 General timing and accounting informations for this job:
 ========================================================
  
                  Total CPU time used (sec):       88.847
                            User time (sec):       85.711
                          System time (sec):        3.135
                         Elapsed time (sec):       93.879
  
                   Maximum memory used (kb):      120928.
                   Average memory used (kb):           0.
  
                          Minor page faults:        41203
                          Major page faults:            0
                 Voluntary context switches:         1149
