 vasp.5.4.4.18Apr17-6-g9f103f2a35 (build Oct 03 2018 13:58:34) complex          
  
 executed on             LinuxIFC date 2019.06.04  01:15:47
 running on   40 total cores
 distrk:  each k-point on   20 cores,    2 groups
 distr:  one band on NCORES_PER_BAND=  10 cores,    2 groups


--------------------------------------------------------------------------------------------------------


 INCAR:
 POTCAR:    PAW_PBE La 06Sep2000                  
 POTCAR:    PAW_PBE Mn 06Sep2000                  
 POTCAR:    PAW_PBE Ni 02Aug2007                  
 POTCAR:    PAW_PBE O 08Apr2002                   

 ----------------------------------------------------------------------------- 
|                                                                             |
|           W    W    AA    RRRRR   N    N  II  N    N   GGGG   !!!           |
|           W    W   A  A   R    R  NN   N  II  NN   N  G    G  !!!           |
|           W    W  A    A  R    R  N N  N  II  N N  N  G       !!!           |
|           W WW W  AAAAAA  RRRRR   N  N N  II  N  N N  G  GGG   !            |
|           WW  WW  A    A  R   R   N   NN  II  N   NN  G    G                |
|           W    W  A    A  R    R  N    N  II  N    N   GGGG   !!!           |
|                                                                             |
|      You have enabled k-point parallelism (KPAR>1).                         |
|      This developmental code was originally  written by Paul Kent at ORNL,  |
|      and carefully double checked in Vienna.                                |
|      GW as well as linear response parallelism added by Martijn Marsman     |
|      and Georg Kresse.                                                      |
|      Carefully verify results versus KPAR=1.                                |
|      Report problems to Paul Kent and Vienna.                               |
|                                                                             |
 ----------------------------------------------------------------------------- 

 POTCAR:    PAW_PBE La 06Sep2000                  
   VRHFIN =La : [core=Kr4d]                                                     
   LEXCH  = PE                                                                  
   EATOM  =   865.9763 eV,   63.6475 Ry                                         
                                                                                
   TITEL  = PAW_PBE La 06Sep2000                                                
   LULTRA =        F    use ultrasoft PP ?                                      
   IUNSCR =        1    unscreen: 0-lin 1-nonlin 2-no                           
   RPACOR =    2.300    partial core radius                                     
   POMASS =  138.900; ZVAL   =   11.000    mass and valenz                      
   RCORE  =    2.800    outmost cutoff radius                                   
   RWIGS  =    2.900; RWIGS  =    1.535    wigner-seitz radius (au A)           
   ENMAX  =  219.292; ENMIN  =  164.469 eV                                      
   RCLOC  =    1.601    cutoff for local pot                                    
   LCOR   =        T    correct aug charges                                     
   LPAW   =        T    paw PP                                                  
   EAUG   =  583.575                                                            
   DEXC   =    0.000                                                            
   RMAX   =    2.853    core radius for proj-oper                               
   RAUG   =    1.300    factor for augmentation sphere                          
   RDEP   =    2.802    radius for radial grids                                 
   RDEPT  =    2.156    core radius for aug-charge                              
                                                                                
   Atomic configuration                                                         
   14 entries                                                                   
     n  l   j            E        occ.                                          
     1  0  0.50    -38741.0879   2.0000                                         
     2  0  0.50     -6166.6801   2.0000                                         
     2  1  1.50     -5526.1593   6.0000                                         
     3  0  0.50     -1319.0200   2.0000                                         
     3  1  1.50     -1114.5963   6.0000                                         
     3  2  2.50      -821.1793  10.0000                                         
     4  0  0.50      -266.3851   2.0000                                         
     4  1  1.50      -199.9276   6.0000                                         
     4  2  2.50      -103.8239  10.0000                                         
     5  0  0.50       -38.9172   2.0000                                         
     6  0  0.50        -3.6792   2.0000                                         
     5  1  1.50       -22.3948   6.0000                                         
     5  2  2.50        -3.0911   0.9999                                         
     4  3  2.50        -4.3603   0.0001                                         
   Description                                                                  
     l       E           TYP  RCUT    TYP  RCUT                                 
     0    -38.9171645     23  2.800                                             
     0     -3.6792381     23  2.800                                             
     1    -22.3948300     23  2.500                                             
     1     27.2116520     23  2.500                                             
     2     -3.0910934     23  2.500                                             
     2      1.0119135     23  2.500                                             
     3     -4.3602911     23  2.800                                             
     3     -5.7208737     23  2.800                                             
  local pseudopotential read in
  partial core-charges read in
  partial kinetic energy density read in
  atomic valenz-charges read in
  non local Contribution for L=           0  read in
    real space projection operators read in
  non local Contribution for L=           0  read in
    real space projection operators read in
  non local Contribution for L=           1  read in
    real space projection operators read in
  non local Contribution for L=           1  read in
    real space projection operators read in
  non local Contribution for L=           2  read in
    real space projection operators read in
  non local Contribution for L=           2  read in
    real space projection operators read in
  non local Contribution for L=           3  read in
    real space projection operators read in
  non local Contribution for L=           3  read in
    real space projection operators read in
    PAW grid and wavefunctions read in
 
   number of l-projection  operators is LMAX  =           8
   number of lm-projection operators is LMMAX =          32
 
 POTCAR:    PAW_PBE Mn 06Sep2000                  
   VRHFIN =Mn: d6 s1                                                            
   LEXCH  = PE                                                                  
   EATOM  =   416.7541 eV,   30.6306 Ry                                         
                                                                                
   TITEL  = PAW_PBE Mn 06Sep2000                                                
   LULTRA =        F    use ultrasoft PP ?                                      
   IUNSCR =        1    unscreen: 0-lin 1-nonlin 2-no                           
   RPACOR =    2.000    partial core radius                                     
   POMASS =   54.938; ZVAL   =    7.000    mass and valenz                      
   RCORE  =    2.300    outmost cutoff radius                                   
   RWIGS  =    2.500; RWIGS  =    1.323    wigner-seitz radius (au A)           
   ENMAX  =  269.864; ENMIN  =  202.398 eV                                      
   RCLOC  =    1.725    cutoff for local pot                                    
   LCOR   =        T    correct aug charges                                     
   LPAW   =        T    paw PP                                                  
   EAUG   =  500.711                                                            
   DEXC   =    0.000                                                            
   RMAX   =    2.343    core radius for proj-oper                               
   RAUG   =    1.300    factor for augmentation sphere                          
   RDEP   =    2.338    radius for radial grids                                 
   RDEPT  =    1.911    core radius for aug-charge                              
                                                                                
   Atomic configuration                                                         
    9 entries                                                                   
     n  l   j            E        occ.                                          
     1  0  0.50     -6424.8288   2.0000                                         
     2  0  0.50      -739.1154   2.0000                                         
     2  1  1.50      -625.3949   6.0000                                         
     3  0  0.50       -81.6100   2.0000                                         
     3  1  1.50       -50.4667   6.0000                                         
     3  2  2.50        -3.3745   6.0000                                         
     4  0  0.50        -4.1331   1.0000                                         
     4  1  0.50        -4.0817   0.0000                                         
     4  3  2.50        -1.3606   0.0000                                         
   Description                                                                  
     l       E           TYP  RCUT    TYP  RCUT                                 
     2     -3.3744664     23  2.300                                             
     2     -4.7350490     23  2.300                                             
     0     -4.1331408     23  2.300                                             
     0      7.6656614     23  2.300                                             
     1     -2.7211652     23  2.300                                             
     1     20.4087390     23  2.300                                             
  local pseudopotential read in
  partial core-charges read in
  partial kinetic energy density read in
  atomic valenz-charges read in
  non local Contribution for L=           2  read in
    real space projection operators read in
  non local Contribution for L=           2  read in
    real space projection operators read in
  non local Contribution for L=           0  read in
    real space projection operators read in
  non local Contribution for L=           0  read in
    real space projection operators read in
  non local Contribution for L=           1  read in
    real space projection operators read in
  non local Contribution for L=           1  read in
    real space projection operators read in
    PAW grid and wavefunctions read in
 
   number of l-projection  operators is LMAX  =           6
   number of lm-projection operators is LMMAX =          18
 
 POTCAR:    PAW_PBE Ni 02Aug2007                  
   VRHFIN =Ni:                                                                  
   LEXCH  = PE                                                                  
   EATOM  =  1077.6739 eV,   79.2068 Ry                                         
                                                                                
   TITEL  = PAW_PBE Ni 02Aug2007                                                
   LULTRA =        F    use ultrasoft PP ?                                      
   IUNSCR =        1    unscreen: 0-lin 1-nonlin 2-no                           
   RPACOR =    2.000    partial core radius                                     
   POMASS =   58.690; ZVAL   =   10.000    mass and valenz                      
   RCORE  =    2.300    outmost cutoff radius                                   
   RWIGS  =    2.430; RWIGS  =    1.286    wigner-seitz radius (au A)           
   ENMAX  =  269.532; ENMIN  =  202.149 eV                                      
   RCLOC  =    1.201    cutoff for local pot                                    
   LCOR   =        T    correct aug charges                                     
   LPAW   =        T    paw PP                                                  
   EAUG   =  544.565                                                            
   DEXC   =    0.000                                                            
   RMAX   =    2.357    core radius for proj-oper                               
   RAUG   =    1.300    factor for augmentation sphere                          
   RDEP   =    2.390    radius for radial grids                                 
   RDEPT  =    1.838    core radius for aug-charge                              
                                                                                
   Atomic configuration                                                         
    9 entries                                                                   
     n  l   j            E        occ.                                          
     1  0  0.50     -8206.4253   2.0000                                         
     2  0  0.50      -976.1748   2.0000                                         
     2  1  1.50      -839.0571   6.0000                                         
     3  0  0.50      -105.9991   2.0000                                         
     3  1  1.50       -66.4603   6.0000                                         
     3  2  2.50        -4.6458   9.0000                                         
     4  0  0.50        -4.4926   1.0000                                         
     4  1  1.50        -4.0817   0.0000                                         
     4  3  2.50        -1.3606   0.0000                                         
   Description                                                                  
     l       E           TYP  RCUT    TYP  RCUT                                 
     2     -4.6457903     23  2.300                                             
     2     -6.0063729     23  2.300                                             
     0     -4.4925590     23  2.300                                             
     0      5.0102601     23  2.300                                             
     1     -2.7211652     23  2.300                                             
     1     16.5183231     23  2.300                                             
  local pseudopotential read in
  partial core-charges read in
  partial kinetic energy density read in
  atomic valenz-charges read in
  non local Contribution for L=           2  read in
    real space projection operators read in
  non local Contribution for L=           2  read in
    real space projection operators read in
  non local Contribution for L=           0  read in
    real space projection operators read in
  non local Contribution for L=           0  read in
    real space projection operators read in
  non local Contribution for L=           1  read in
    real space projection operators read in
  non local Contribution for L=           1  read in
    real space projection operators read in
    PAW grid and wavefunctions read in
 
   number of l-projection  operators is LMAX  =           6
   number of lm-projection operators is LMMAX =          18
 
 POTCAR:    PAW_PBE O 08Apr2002                   
   VRHFIN =O: s2p4                                                              
   LEXCH  = PE                                                                  
   EATOM  =   432.3788 eV,   31.7789 Ry                                         
                                                                                
   TITEL  = PAW_PBE O 08Apr2002                                                 
   LULTRA =        F    use ultrasoft PP ?                                      
   IUNSCR =        1    unscreen: 0-lin 1-nonlin 2-no                           
   RPACOR =    1.200    partial core radius                                     
   POMASS =   16.000; ZVAL   =    6.000    mass and valenz                      
   RCORE  =    1.520    outmost cutoff radius                                   
   RWIGS  =    1.550; RWIGS  =    0.820    wigner-seitz radius (au A)           
   ENMAX  =  400.000; ENMIN  =  300.000 eV                                      
   ICORE  =        2    local potential                                         
   LCOR   =        T    correct aug charges                                     
   LPAW   =        T    paw PP                                                  
   EAUG   =  605.392                                                            
   DEXC   =    0.000                                                            
   RMAX   =    1.553    core radius for proj-oper                               
   RAUG   =    1.300    factor for augmentation sphere                          
   RDEP   =    1.550    radius for radial grids                                 
   RDEPT  =    1.329    core radius for aug-charge                              
                                                                                
   Atomic configuration                                                         
    4 entries                                                                   
     n  l   j            E        occ.                                          
     1  0  0.50      -514.6923   2.0000                                         
     2  0  0.50       -23.9615   2.0000                                         
     2  1  0.50        -9.0305   4.0000                                         
     3  2  1.50        -9.5241   0.0000                                         
   Description                                                                  
     l       E           TYP  RCUT    TYP  RCUT                                 
     0    -23.9615318     23  1.200                                             
     0     -9.5240782     23  1.200                                             
     1     -9.0304911     23  1.520                                             
     1      8.1634956     23  1.520                                             
     2     -9.5240782      7  1.500                                             
  local pseudopotential read in
  partial core-charges read in
  partial kinetic energy density read in
  kinetic energy density of atom read in
  atomic valenz-charges read in
  non local Contribution for L=           0  read in
    real space projection operators read in
  non local Contribution for L=           0  read in
    real space projection operators read in
  non local Contribution for L=           1  read in
    real space projection operators read in
  non local Contribution for L=           1  read in
    real space projection operators read in
    PAW grid and wavefunctions read in
 
   number of l-projection  operators is LMAX  =           4
   number of lm-projection operators is LMMAX =           8
 
 Optimization of the real space projectors (new method)

 maximal supplied QI-value         = 13.42
 optimisation between [QCUT,QGAM] = [ 11.67, 23.35] = [ 38.16,152.62] Ry 
 Optimized for a Real-space Cutoff    1.63 Angstroem

   l    n(q)    QCUT    max X(q) W(low)/X(q) W(high)/X(q)  e(spline) 
   0     11    11.673    13.882    0.27E-04    0.79E-05    0.11E-06
   0     11    11.673    12.184    0.39E-04    0.13E-04    0.19E-06
   1     11    11.673     4.523    0.73E-05    0.76E-05    0.12E-06
   1     11    11.673     4.424    0.87E-05    0.13E-04    0.19E-06
   2     10    11.673    52.481    0.65E-04    0.36E-04    0.18E-06
   2     10    11.673    38.501    0.61E-04    0.33E-04    0.17E-06
   3     10    11.673    65.631    0.17E-03    0.14E-03    0.37E-06
   3     10    11.673    56.854    0.17E-03    0.14E-03    0.37E-06
 Optimization of the real space projectors (new method)

 maximal supplied QI-value         = 16.25
 optimisation between [QCUT,QGAM] = [ 11.54, 23.24] = [ 37.28,151.24] Ry 
 Optimized for a Real-space Cutoff    1.53 Angstroem

   l    n(q)    QCUT    max X(q) W(low)/X(q) W(high)/X(q)  e(spline) 
   2     10    11.539   110.144    0.12E-03    0.13E-03    0.25E-06
   2     10    11.539   103.200    0.12E-03    0.13E-03    0.25E-06
   0     11    11.539    68.437    0.46E-04    0.21E-04    0.32E-06
   0     11    11.539    33.971    0.37E-04    0.19E-04    0.29E-06
   1     10    11.539    17.065    0.51E-04    0.22E-04    0.13E-06
   1     10    11.539    12.540    0.41E-04    0.18E-04    0.11E-06
 Optimization of the real space projectors (new method)

 maximal supplied QI-value         = 16.25
 optimisation between [QCUT,QGAM] = [ 11.54, 23.24] = [ 37.28,151.24] Ry 
 Optimized for a Real-space Cutoff    1.45 Angstroem

   l    n(q)    QCUT    max X(q) W(low)/X(q) W(high)/X(q)  e(spline) 
   2      9    11.539    60.317    0.19E-03    0.47E-04    0.16E-06
   2      9    11.539    55.921    0.19E-03    0.48E-04    0.16E-06
   0     10    11.539    51.690    0.80E-04    0.50E-04    0.24E-06
   0     10    11.539    30.015    0.73E-04    0.45E-04    0.22E-06
   1     10    11.539    18.849    0.87E-04    0.16E-03    0.71E-07
   1     10    11.539    14.624    0.73E-04    0.13E-03    0.64E-07
 Optimization of the real space projectors (new method)

 maximal supplied QI-value         = 24.76
 optimisation between [QCUT,QGAM] = [ 11.64, 23.27] = [ 37.91,151.63] Ry 
 Optimized for a Real-space Cutoff    1.14 Angstroem

   l    n(q)    QCUT    max X(q) W(low)/X(q) W(high)/X(q)  e(spline) 
   0      8    11.635    20.381    0.10E-03    0.33E-03    0.24E-06
   0      8    11.635    15.268    0.11E-03    0.35E-03    0.26E-06
   1      7    11.635     5.964    0.24E-03    0.31E-03    0.30E-06
   1      7    11.635     5.382    0.22E-03    0.25E-03    0.26E-06
  PAW_PBE La 06Sep2000                  :
 energy of atom  1       EATOM= -865.9763
 kinetic energy error for atom=    0.0009 (will be added to EATOM!!)
  PAW_PBE Mn 06Sep2000                  :
 energy of atom  2       EATOM= -416.7541
 kinetic energy error for atom=    0.0024 (will be added to EATOM!!)
  PAW_PBE Ni 02Aug2007                  :
 energy of atom  3       EATOM=-1077.6739
 kinetic energy error for atom=    0.0030 (will be added to EATOM!!)
  PAW_PBE O 08Apr2002                   :
 energy of atom  4       EATOM= -432.3788
 kinetic energy error for atom=    0.0208 (will be added to EATOM!!)
 
 
 POSCAR: SCEL4_1_4_1_1_0_0/2                     
  positions in direct lattice
  velocities in cartesian coordinates
 exchange correlation table for  LEXCH =        8
   RHO(1)=    0.500       N(1)  =     2000
   RHO(2)=  100.500       N(2)  =     4000
 


--------------------------------------------------------------------------------------------------------


 ion  position               nearest neighbor table
   1  0.000  0.500  0.250-  19 2.73  19 2.73  20 2.74  18 2.74  15 2.74  16 2.74  15 2.74  16 2.74
                            10 2.74  11 2.74  10 2.74  11 2.74   7 3.34   7 3.34   7 3.34   7 3.34
   2  0.000  0.000  0.494-  19 2.66  15 2.69  10 2.69  10 2.69  15 2.69  18 2.73  18 2.73   9 2.77
                             9 2.77  14 2.77  14 2.77  17 2.80   7 3.29   7 3.29   8 3.34   8 3.34
   3  0.000  0.500  0.750-  18 2.72  20 2.72  13 2.73  14 2.73   9 2.73  12 2.73   9 2.73  12 2.73
                            13 2.73  14 2.73  17 2.73  17 2.73   5 3.34   5 3.34   5 3.34   5 3.34
   4  0.000  0.000  0.006-  19 2.66  16 2.69  11 2.69  11 2.69  16 2.69  20 2.73  20 2.73  12 2.77
                            12 2.77  13 2.77  13 2.77  17 2.80   7 3.29   7 3.29   6 3.34   6 3.34
   5  0.500  0.000  0.750-   9 1.90  12 1.90  13 1.90  14 1.90  17 1.93  17 1.93   3 3.34   3 3.34
                             3 3.34   3 3.34   2 3.40   4 3.40   4 3.40   2 3.40
   6  0.500  0.500  1.000-  20 1.93  20 1.93  11 1.95  16 1.95  13 1.96  12 1.96   4 3.34   4 3.34
                             4 3.34   4 3.34   3 3.34   3 3.34   1 3.34   1 3.34
   7  0.500  0.000  0.250-  10 1.91  11 1.91  15 1.91  16 1.91  19 1.93  19 1.93   2 3.29   2 3.29
                             4 3.29   4 3.29   1 3.34   1 3.34   1 3.34   1 3.34
   8  0.500  0.500  0.500-  18 1.93  18 1.93  10 1.95  15 1.95  14 1.96   9 1.96   2 3.34   2 3.34
                             2 3.34   2 3.34   3 3.34   3 3.34   1 3.34   1 3.34
   9  0.500  0.753  0.628-   5 1.90   8 1.96   3 2.73   3 2.73   2 2.77   2 2.77
  10  0.500  0.246  0.374-   7 1.91   8 1.95   2 2.69   2 2.69   1 2.74   1 2.74
  11  0.500  0.754  0.126-   7 1.91   6 1.95   4 2.69   4 2.69   1 2.74   1 2.74
  12  0.500  0.247  0.872-   5 1.90   6 1.96   3 2.73   3 2.73   4 2.77   4 2.77
  13  0.500  0.753  0.872-   5 1.90   6 1.96   3 2.73   3 2.73   4 2.77   4 2.77
  14  0.500  0.247  0.628-   5 1.90   8 1.96   3 2.73   3 2.73   2 2.77   2 2.77
  15  0.500  0.754  0.374-   7 1.91   8 1.95   2 2.69   2 2.69   1 2.74   1 2.74
  16  0.500  0.246  0.126-   7 1.91   6 1.95   4 2.69   4 2.69   1 2.74   1 2.74
  17  0.000  0.000  0.750-   5 1.93   5 1.93   3 2.73   3 2.73   4 2.80   2 2.80
  18  0.000  0.500  0.501-   8 1.93   8 1.93   3 2.72   2 2.73   2 2.73   1 2.74
  19  0.000  0.000  0.250-   7 1.93   7 1.93   2 2.66   4 2.66   1 2.73   1 2.73
  20  0.000  0.500  0.999-   6 1.93   6 1.93   3 2.72   4 2.73   4 2.73   1 2.74
 
  LATTYP: Found a simple orthorhombic cell.
 ALAT       =     3.8659094544
 B/A-ratio  =     1.4108785144
 C/A-ratio  =     2.8245061037
  
  Lattice vectors:
  
 A1 = (   3.8659094544,   0.0000000000,   0.0000000000)
 A2 = (   0.0000000000,   3.8567927313,   3.8567927313)
 A3 = (   0.0000000000,  -7.7211003632,   7.7211003632)


Analysis of symmetry for initial positions (statically):
=====================================================================
 Subroutine PRICEL returns:
 Original cell was already a primitive cell.
 

 Routine SETGRP: Setting up the symmetry group for a 
 simple orthorhombic supercell.


 Subroutine GETGRP returns: Found  8 space group operations
 (whereof  4 operations were pure point group operations)
 out of a pool of  8 trial point group operations.


The static configuration has the point symmetry C_2v.
 The point group associated with its full space group is D_2h.


Analysis of symmetry for dynamics (positions and initial velocities):
=====================================================================
 Subroutine PRICEL returns:
 Original cell was already a primitive cell.
 

 Routine SETGRP: Setting up the symmetry group for a 
 simple orthorhombic supercell.


 Subroutine GETGRP returns: Found  8 space group operations
 (whereof  4 operations were pure point group operations)
 out of a pool of  8 trial point group operations.


The dynamic configuration has the point symmetry C_2v.
 The point group associated with its full space group is D_2h.


Analysis of structural, dynamic, and magnetic symmetry:
=====================================================================
 Subroutine PRICEL returns:
 Original cell was already a primitive cell.
 

 Routine SETGRP: Setting up the symmetry group for a 
 simple orthorhombic supercell.


 Subroutine GETGRP returns: Found  8 space group operations
 (whereof  4 operations were pure point group operations)
 out of a pool of  8 trial point group operations.


The magnetic configuration has the point symmetry C_2v.
 The point group associated with its full space group is D_2h.


 Subroutine INISYM returns: Found  8 space group operations
 (whereof  4 operations are pure point group operations),
 and found     1 'primitive' translations

 
 
 KPOINTS: Automatic mesh                          

Automatic generation of k-mesh.
 generate k-points for:    5    4    2
Space group operators:
 irot       det(A)        alpha          n_x          n_y          n_z        tau_x        tau_y        tau_z
    1     1.000000     0.000000     1.000000     0.000000     0.000000     0.000000     0.000000     0.000000
    2     1.000000   180.000000     0.000000    -0.707107     0.707107     0.000000     0.000000     0.000000
    3    -1.000000   180.000000     0.000000     0.707107     0.707107     0.000000     0.000000     0.000000
    4    -1.000000   180.000000     1.000000     0.000000     0.000000     0.000000     0.000000     0.000000
    5    -1.000000     0.000000     1.000000     0.000000     0.000000     0.000000     0.000000     0.500000
    6    -1.000000   180.000000     0.000000    -0.707107     0.707107     0.000000     0.000000     0.500000
    7     1.000000   180.000000     0.000000     0.707107     0.707107     0.000000     0.000000     0.500000
    8     1.000000   180.000000     1.000000     0.000000     0.000000     0.000000     0.000000     0.500000
 
 Subroutine IBZKPT returns following result:
 ===========================================
 
 Found     18 irreducible k-points:
 
 Following reciprocal coordinates:
            Coordinates               Weight
  0.000000  0.000000  0.000000      1.000000
  0.200000  0.000000  0.000000      2.000000
  0.400000  0.000000  0.000000      2.000000
  0.000000  0.250000  0.000000      2.000000
  0.200000  0.250000  0.000000      4.000000
  0.400000  0.250000  0.000000      4.000000
  0.000000  0.500000  0.000000      1.000000
  0.200000  0.500000  0.000000      2.000000
  0.400000  0.500000  0.000000      2.000000
  0.000000  0.000000  0.500000      1.000000
  0.200000  0.000000  0.500000      2.000000
  0.400000  0.000000  0.500000      2.000000
  0.000000  0.250000  0.500000      2.000000
  0.200000  0.250000  0.500000      4.000000
  0.400000  0.250000  0.500000      4.000000
  0.000000  0.500000  0.500000      1.000000
  0.200000  0.500000  0.500000      2.000000
  0.400000  0.500000  0.500000      2.000000
 
 Following cartesian coordinates:
            Coordinates               Weight
  0.000000  0.000000  0.000000      1.000000
  0.051734  0.000000  0.000000      2.000000
  0.103469  0.000000  0.000000      2.000000
  0.000000  0.032410  0.032410      2.000000
  0.051734  0.032410  0.032410      4.000000
  0.103469  0.032410  0.032410      4.000000
  0.000000  0.064821  0.064821      1.000000
  0.051734  0.064821  0.064821      2.000000
  0.103469  0.064821  0.064821      2.000000
  0.000000 -0.032379  0.032379      1.000000
  0.051734 -0.032379  0.032379      2.000000
  0.103469 -0.032379  0.032379      2.000000
  0.000000  0.000032  0.064789      2.000000
  0.051734  0.000032  0.064789      4.000000
  0.103469  0.000032  0.064789      4.000000
  0.000000  0.032442  0.097200      1.000000
  0.051734  0.032442  0.097200      2.000000
  0.103469  0.032442  0.097200      2.000000
 
 TETIRR: Found    120 inequivalent tetrahedra from      240


--------------------------------------------------------------------------------------------------------




 Dimension of arrays:
   k-points           NKPTS =     18   k-points in BZ     NKDIM =     18   number of bands    NBANDS=     98
   number of dos      NEDOS =    301   number of ions     NIONS =     20
   non local maximal  LDIM  =      8   non local SUM 2l+1 LMDIM =     32
   total plane-waves  NPLWV = 105840
   max r-space proj   IRMAX =   8346   max aug-charges    IRDMAX=  24217
   dimension x,y,z NGX =    30 NGY =   42 NGZ =   84
   dimension x,y,z NGXF=    60 NGYF=   84 NGZF=  168
   support grid    NGXF=    60 NGYF=   84 NGZF=  168
   ions per type =               4   1   3  12
   NGX,Y,Z   is equivalent  to a cutoff of  12.90, 12.80, 12.79 a.u.
   NGXF,Y,Z  is equivalent  to a cutoff of  25.80, 25.60, 25.58 a.u.

 SYSTEM =  final                                   
 POSCAR =  SCEL4_1_4_1_1_0_0/2                     

 Startparameter for this run:
   NWRITE =      2    write-flag & timer
   PREC   = accura    normal or accurate (medium, high low for compatibility)
   ISTART =      0    job   : 0-new  1-cont  2-samecut
   ICHARG =      1    charge: 1-file 2-atom 10-const
   ISPIN  =      2    spin polarized calculation?
   LNONCOLLINEAR =      F non collinear calculations
   LSORBIT =      F    spin-orbit coupling
   INIWAV =      1    electr: 0-lowe 1-rand  2-diag
   LASPH  =      F    aspherical Exc in radial PAW
   METAGGA=      F    non-selfconsistent MetaGGA calc.

 Electronic Relaxation 1
   ENCUT  =  520.0 eV  38.22 Ry    6.18 a.u.   7.19 10.14 20.30*2*pi/ulx,y,z
   ENINI  =  520.0     initial cutoff
   ENAUG  =  605.4 eV  augmentation charge cutoff
   NELM   =    100;   NELMIN=  2; NELMDL= -5     # of ELM steps 
   EDIFF  = 0.1E-02   stopping-criterion for ELM
   LREAL  =      T    real-space projection
   NLSPLINE    = F    spline interpolate recip. space projectors
   LCOMPAT=      F    compatible to vasp.4.4
   GGA_COMPAT  = T    GGA compatible to vasp.4.4-vasp.4.6
   LMAXPAW     = -100 max onsite density
   LMAXMIX     =    6 max onsite mixed and CHGCAR
   VOSKOWN=      0    Vosko Wilk Nusair interpolation
   ROPT   =   -0.00025  -0.00025  -0.00025  -0.00025
 Ionic relaxation
   EDIFFG = 0.1E-01   stopping-criterion for IOM
   NSW    =      0    number of steps for IOM
   NBLOCK =      1;   KBLOCK =      1    inner block; outer block 
   IBRION =     -1    ionic relax: 0-MD 1-quasi-New 2-CG
   NFREE  =      0    steps in history (QN), initial steepest desc. (CG)
   ISIF   =      2    stress and relaxation
   IWAVPR =     10    prediction:  0-non 1-charg 2-wave 3-comb
   ISYM   =      2    0-nonsym 1-usesym 2-fastsym
   LCORR  =      T    Harris-Foulkes like correction to forces

   POTIM  = 0.5000    time-step for ionic-motion
   TEIN   =    0.0    initial temperature
   TEBEG  =    0.0;   TEEND  =   0.0 temperature during run
   SMASS  =  -3.00    Nose mass-parameter (am)
   estimated Nose-frequenzy (Omega)   =  0.10E-29 period in steps =****** mass=  -0.342E-27a.u.
   SCALEE = 1.0000    scale energy and forces
   NPACO  =    256;   APACO  = 16.0  distance and # of slots for P.C.
   PSTRESS=    0.0 pullay stress

  Mass of Ions in am
   POMASS = 138.90 54.94 58.69 16.00
  Ionic Valenz
   ZVAL   =  11.00  7.00 10.00  6.00
  Atomic Wigner-Seitz radii
   RWIGS  =  -1.00 -1.00 -1.00 -1.00
  virtual crystal weights 
   VCA    =   1.00  1.00  1.00  1.00
   NELECT =     153.0000    total number of electrons
   NUPDOWN=      -1.0000    fix difference up-down

 DOS related values:
   EMIN   =  10.00;   EMAX   =-10.00  energy-range for DOS
   EFERMI =   0.00
   ISMEAR =    -5;   SIGMA  =   0.05  broadening in eV -4-tet -1-fermi 0-gaus

 Electronic relaxation 2 (details)
   IALGO  =     68    algorithm
   LDIAG  =      T    sub-space diagonalisation (order eigenvalues)
   LSUBROT=      F    optimize rotation matrix (better conditioning)
   TURBO    =      0    0=normal 1=particle mesh
   IRESTART =      0    0=no restart 2=restart with 2 vectors
   NREBOOT  =      0    no. of reboots
   NMIN     =      0    reboot dimension
   EREF     =   0.00    reference energy to select bands
   IMIX   =      4    mixing-type and parameters
     AMIX     =   0.40;   BMIX     =  1.00
     AMIX_MAG =   1.60;   BMIX_MAG =  1.00
     AMIN     =   0.10
     WC   =   100.;   INIMIX=   1;  MIXPRE=   1;  MAXMIX= -45

 Intra band minimization:
   WEIMIN = 0.0000     energy-eigenvalue tresh-hold
   EBREAK =  0.26E-05  absolut break condition
   DEPER  =   0.30     relativ break condition  

   TIME   =   0.40     timestep for ELM

  volume/ion in A,a.u.               =      11.51        77.69
  Fermi-wavevector in a.u.,A,eV,Ry     =   1.428597  2.699656 27.767967  2.040888
  Thomas-Fermi vector in A             =   2.548641
 
 Write flags
   LWAVE        =      F    write WAVECAR
   LDOWNSAMPLE  =      F    k-point downsampling of WAVECAR
   LCHARG       =      T    write CHGCAR
   LVTOT        =      F    write LOCPOT, total local potential
   LVHAR        =      F    write LOCPOT, Hartree potential only
   LELF         =      F    write electronic localiz. function (ELF)
   LORBIT       =     11    0 simple, 1 ext, 2 COOP (PROOUT), +10 PAW based schemes


 Dipole corrections
   LMONO  =      F    monopole corrections only (constant potential shift)
   LDIPOL =      F    correct potential (dipole corrections)
   IDIPOL =      0    1-x, 2-y, 3-z, 4-all directions 
   EPSILON=  1.0000000 bulk dielectric constant

 LDA+U is selected, type is set to LDAUTYPE =  2
   angular momentum for each species LDAUL =     0    2    2    0
   U (eV)           for each species LDAUU =   0.0  3.9  6.2  0.0
   J (eV)           for each species LDAUJ =   0.0  0.0  0.0  0.0
 Exchange correlation treatment:
   GGA     =    --    GGA type
   LEXCH   =     8    internal setting for exchange type
   VOSKOWN=      0    Vosko Wilk Nusair interpolation
   LHFCALC =     F    Hartree Fock is set to
   LHFONE  =     F    Hartree Fock one center treatment
   AEXX    =    0.0000 exact exchange contribution

 Linear response parameters
   LEPSILON=     F    determine dielectric tensor
   LRPA    =     F    only Hartree local field effects (RPA)
   LNABLA  =     F    use nabla operator in PAW spheres
   LVEL    =     F    velocity operator in full k-point grid
   LINTERFAST=   F  fast interpolation
   KINTER  =     0    interpolate to denser k-point grid
   CSHIFT  =0.1000    complex shift for real part using Kramers Kronig
   OMEGAMAX=  -1.0    maximum frequency
   DEG_THRESHOLD= 0.2000000E-02 threshold for treating states as degnerate
   RTIME   =   -0.100 relaxation time in fs
  (WPLASMAI=    0.000 imaginary part of plasma frequency in eV, 0.658/RTIME)
   DFIELD  = 0.0000000 0.0000000 0.0000000 field for delta impulse in time
 
 Orbital magnetization related:
   ORBITALMAG=     F  switch on orbital magnetization
   LCHIMAG   =     F  perturbation theory with respect to B field
   DQ        =  0.001000  dq finite difference perturbation B field
   LLRAUG    =     F  two centre corrections for induced B field



--------------------------------------------------------------------------------------------------------


 Static calculation
 charge density and potential will be updated during run
 spin polarized calculation
 RMM-DIIS sequential band-by-band and
  variant of blocked Davidson during initial phase
 perform sub-space diagonalisation
    before iterative eigenvector-optimisation
 modified Broyden-mixing scheme, WC =      100.0
 initial mixing is a Kerker type mixing with AMIX =  0.4000 and BMIX =      1.0000
 Hartree-type preconditioning will be used
 using additional bands           21
 real space projection scheme for non local part
 use partial core corrections
 calculate Harris-corrections to forces 
   (improved forces if not selfconsistent)
 use gradient corrections 
 use of overlap-Matrix (Vanderbilt PP)
 Fermi weights with tetrahedron method with Bloechl corrections


--------------------------------------------------------------------------------------------------------


  energy-cutoff  :      520.00
  volume of cell :      230.24
      direct lattice vectors                 reciprocal lattice vectors
     3.865909454  0.000000000  0.000000000     0.258671345  0.000000000  0.000000000
     0.000000000  3.856792731  3.856792731     0.000000000  0.129641398  0.129641398
     0.000000000 -7.721100363  7.721100363     0.000000000 -0.064757609  0.064757609

  length of vectors
     3.865909454  5.454328588 10.919284850     0.258671345  0.183340623  0.091581089


 
 k-points in units of 2pi/SCALE and weight: Automatic mesh                          
   0.00000000  0.00000000  0.00000000       0.025
   0.05173427  0.00000000  0.00000000       0.050
   0.10346854  0.00000000  0.00000000       0.050
   0.00000000  0.03241035  0.03241035       0.050
   0.05173427  0.03241035  0.03241035       0.100
   0.10346854  0.03241035  0.03241035       0.100
   0.00000000  0.06482070  0.06482070       0.025
   0.05173427  0.06482070  0.06482070       0.050
   0.10346854  0.06482070  0.06482070       0.050
   0.00000000 -0.03237880  0.03237880       0.025
   0.05173427 -0.03237880  0.03237880       0.050
   0.10346854 -0.03237880  0.03237880       0.050
   0.00000000  0.00003154  0.06478915       0.050
   0.05173427  0.00003154  0.06478915       0.100
   0.10346854  0.00003154  0.06478915       0.100
   0.00000000  0.03244189  0.09719950       0.025
   0.05173427  0.03244189  0.09719950       0.050
   0.10346854  0.03244189  0.09719950       0.050
 
 k-points in reciprocal lattice and weights: Automatic mesh                          
   0.00000000  0.00000000  0.00000000       0.025
   0.20000000  0.00000000  0.00000000       0.050
   0.40000000  0.00000000  0.00000000       0.050
   0.00000000  0.25000000  0.00000000       0.050
   0.20000000  0.25000000  0.00000000       0.100
   0.40000000  0.25000000  0.00000000       0.100
   0.00000000  0.50000000  0.00000000       0.025
   0.20000000  0.50000000  0.00000000       0.050
   0.40000000  0.50000000  0.00000000       0.050
   0.00000000  0.00000000  0.50000000       0.025
   0.20000000  0.00000000  0.50000000       0.050
   0.40000000  0.00000000  0.50000000       0.050
   0.00000000  0.25000000  0.50000000       0.050
   0.20000000  0.25000000  0.50000000       0.100
   0.40000000  0.25000000  0.50000000       0.100
   0.00000000  0.50000000  0.50000000       0.025
   0.20000000  0.50000000  0.50000000       0.050
   0.40000000  0.50000000  0.50000000       0.050
 
 position of ions in fractional coordinates (direct lattice) 
   0.00000000  0.50000000  0.25000000
   0.00000000  0.00000000  0.49361596
   0.00000000  0.50000000  0.75000000
   0.00000000  0.00000000  0.00638404
   0.50000000  0.00000000  0.75000000
   0.50000000  0.50000000  0.99999846
   0.50000000  0.00000000  0.25000000
   0.50000000  0.50000000  0.50000154
   0.50000000  0.75290636  0.62756434
   0.50000000  0.24619951  0.37395034
   0.50000000  0.75380049  0.12604966
   0.50000000  0.24709364  0.87243566
   0.50000000  0.75290636  0.87243566
   0.50000000  0.24709364  0.62756434
   0.50000000  0.75380049  0.37395034
   0.50000000  0.24619951  0.12604966
   0.00000000  0.00000000  0.75000000
   0.00000000  0.50000000  0.50051936
   0.00000000  0.00000000  0.25000000
   0.00000000  0.50000000  0.99948064
 
 position of ions in cartesian coordinates  (Angst):
   0.00000000 -0.00187873  3.85867146
   0.00000000 -3.81125834  3.81125834
   0.00000000 -3.86242891  7.71922164
   0.00000000 -0.04929184  0.04929184
   1.93295473 -5.79082527  5.79082527
   1.93295473 -5.79269210  9.64948483
   1.93295473 -1.93027509  1.93027509
   1.93295473 -1.93216572  5.78895845
   1.93295473 -1.94168346  7.74929105
   1.93295473 -1.93776763  3.83684855
   1.93295473  1.93401018  3.88049436
   1.93295473 -5.78317435  7.68915223
   1.93295473 -3.83235950  9.63996708
   1.93295473 -3.89249832  5.79847620
   1.93295473  0.01994418  5.79456036
   1.93295473 -0.02370163  1.92278255
   0.00000000 -5.79082527  5.79082527
   0.00000000 -1.93616387  5.79295660
   0.00000000 -1.93027509  1.93027509
   0.00000000 -5.78869394  9.64548668
 


--------------------------------------------------------------------------------------------------------


 k-point  1 :   0.0000 0.0000 0.0000  plane waves:    6239
 k-point  2 :   0.2000 0.0000 0.0000  plane waves:    6200
 k-point  3 :   0.4000 0.0000 0.0000  plane waves:    6176
 k-point  4 :   0.0000 0.2500 0.0000  plane waves:    6188
 k-point  5 :   0.2000 0.2500 0.0000  plane waves:    6189
 k-point  6 :   0.4000 0.2500 0.0000  plane waves:    6209
 k-point  7 :   0.0000 0.5000 0.0000  plane waves:    6192
 k-point  8 :   0.2000 0.5000 0.0000  plane waves:    6200
 k-point  9 :   0.4000 0.5000 0.0000  plane waves:    6222
 k-point 10 :   0.0000 0.0000 0.5000  plane waves:    6180
 k-point 11 :   0.2000 0.0000 0.5000  plane waves:    6178
 k-point 12 :   0.4000 0.0000 0.5000  plane waves:    6190
 k-point 13 :   0.0000 0.2500 0.5000  plane waves:    6188
 k-point 14 :   0.2000 0.2500 0.5000  plane waves:    6204
 k-point 15 :   0.4000 0.2500 0.5000  plane waves:    6198
 k-point 16 :   0.0000 0.5000 0.5000  plane waves:    6208
 k-point 17 :   0.2000 0.5000 0.5000  plane waves:    6192
 k-point 18 :   0.4000 0.5000 0.5000  plane waves:    6228

 maximum and minimum number of plane-waves per node :       637      595

 maximum number of plane-waves:      6239
 maximum index in each direction: 
   IXMAX=    7   IYMAX=   10   IZMAX=   20
   IXMIN=   -7   IYMIN=  -10   IZMIN=  -20


 real space projection operators:
  total allocation   :      13477.12 KBytes
  max/ min on nodes  :       1398.25       1312.56


 parallel 3D FFT for wavefunctions:
    minimum data exchange during FFTs selected (reduces bandwidth)
 parallel 3D FFT for charge:
    minimum data exchange during FFTs selected (reduces bandwidth)


 total amount of memory used by VASP MPI-rank0    60279. kBytes
=======================================================================

   base      :      30000. kBytes
   nonlr-proj:       4571. kBytes
   fftplans  :       1760. kBytes
   grid      :       4955. kBytes
   one-center:        196. kBytes
   wavefun   :      18797. kBytes
 
     INWAV:  cpu time    0.0000: real time    0.0000
 Broyden mixing: mesh for mixing (old mesh)
   NGX = 15   NGY = 21   NGZ = 41
  (NGX  = 60   NGY  = 84   NGZ  =168)
  gives a total of  12915 points

 initial charge density was supplied:
 charge density of overlapping atoms calculated
 number of electron     153.0000000 magnetization      13.0000000
 keeping initial charge density in first step


--------------------------------------------------------------------------------------------------------


 Maximum index for non-local projection operator          843
 Maximum index for augmentation-charges          979 (set IRDMAX)


--------------------------------------------------------------------------------------------------------


 First call to EWALD:  gamma=   0.289
 Maximum number of real-space cells 4x 3x 2
 Maximum number of reciprocal cells 2x 2x 5

    FEWALD:  cpu time    0.0020: real time    0.0030


--------------------------------------- Iteration      1(   1)  ---------------------------------------


    POTLOK:  cpu time    0.0517: real time    0.0548
    SETDIJ:  cpu time    0.0097: real time    0.0097
atom =   1  type =  1  l = 0
 
 onsite density matrix
 
spin component  1
 
  1.0989
 
spin component  2
 
  1.0989
 
 occupancies and eigenvectors
 
  o =  1.0989  v =  1.0000  0.0000      0.0000  0.0000
  o =  1.0989  v =  0.0000  1.0000      0.0000  0.0000
atom =   2  type =  1  l = 0
 
 onsite density matrix
 
spin component  1
 
  1.0989
 
spin component  2
 
  1.0989
 
 occupancies and eigenvectors
 
  o =  1.0989  v =  1.0000  0.0000      0.0000  0.0000
  o =  1.0989  v =  0.0000  1.0000      0.0000  0.0000
atom =   3  type =  1  l = 0
 
 onsite density matrix
 
spin component  1
 
  1.0989
 
spin component  2
 
  1.0989
 
 occupancies and eigenvectors
 
  o =  1.0989  v =  1.0000  0.0000      0.0000  0.0000
  o =  1.0989  v =  0.0000  1.0000      0.0000  0.0000
atom =   4  type =  1  l = 0
 
 onsite density matrix
 
spin component  1
 
  1.0989
 
spin component  2
 
  1.0989
 
 occupancies and eigenvectors
 
  o =  1.0989  v =  1.0000  0.0000      0.0000  0.0000
  o =  1.0989  v =  0.0000  1.0000      0.0000  0.0000
atom =   5  type =  2  l = 2
 
 onsite density matrix
 
spin component  1
 
  0.8272  0.0000  0.0000  0.0000  0.0000
  0.0000  0.8272  0.0000  0.0000  0.0000
  0.0000  0.0000  0.8272  0.0000  0.0000
  0.0000  0.0000  0.0000  0.8272  0.0000
  0.0000  0.0000  0.0000  0.0000  0.8272
 
spin component  2
 
  0.2256  0.0000  0.0000  0.0000  0.0000
  0.0000  0.2256  0.0000  0.0000  0.0000
  0.0000  0.0000  0.2256  0.0000  0.0000
  0.0000  0.0000  0.0000  0.2256  0.0000
  0.0000  0.0000  0.0000  0.0000  0.2256
 
 occupancies and eigenvectors
 
  o =  0.2256  v =  0.0000  0.0000  0.0000  0.0000  0.0000  0.0000  0.0000  1.0000  0.0000  0.0000      0.0000  0.0000  0.0000  0.0000  0.0000  0.0000  0.0000  0.0000  0.0000  0.0000
  o =  0.2256  v =  0.0000  0.0000  0.0000  0.0000  0.0000  1.0000  0.0000  0.0000  0.0000  0.0000      0.0000  0.0000  0.0000  0.0000  0.0000  0.0000  0.0000  0.0000  0.0000  0.0000
  o =  0.2256  v =  0.0000  0.0000  0.0000  0.0000  0.0000  0.0000  1.0000  0.0000  0.0000  0.0000      0.0000  0.0000  0.0000  0.0000  0.0000  0.0000  0.0000  0.0000  0.0000  0.0000
  o =  0.2256  v =  0.0000  0.0000  0.0000  0.0000  0.0000  0.0000  0.0000  0.0000  1.0000  0.0000      0.0000  0.0000  0.0000  0.0000  0.0000  0.0000  0.0000  0.0000  0.0000  0.0000
  o =  0.2256  v =  0.0000  0.0000  0.0000  0.0000  0.0000  0.0000  0.0000  0.0000  0.0000  1.0000      0.0000  0.0000  0.0000  0.0000  0.0000  0.0000  0.0000  0.0000  0.0000  0.0000
  o =  0.8272  v =  0.0000  1.0000  0.0000  0.0000  0.0000  0.0000  0.0000  0.0000  0.0000  0.0000      0.0000  0.0000  0.0000  0.0000  0.0000  0.0000  0.0000  0.0000  0.0000  0.0000
  o =  0.8272  v =  0.0000  0.0000  1.0000  0.0000  0.0000  0.0000  0.0000  0.0000  0.0000  0.0000      0.0000  0.0000  0.0000  0.0000  0.0000  0.0000  0.0000  0.0000  0.0000  0.0000
  o =  0.8272  v =  1.0000  0.0000  0.0000  0.0000  0.0000  0.0000  0.0000  0.0000  0.0000  0.0000      0.0000  0.0000  0.0000  0.0000  0.0000  0.0000  0.0000  0.0000  0.0000  0.0000
  o =  0.8272  v =  0.0000  0.0000  0.0000  1.0000  0.0000  0.0000  0.0000  0.0000  0.0000  0.0000      0.0000  0.0000  0.0000  0.0000  0.0000  0.0000  0.0000  0.0000  0.0000  0.0000
  o =  0.8272  v =  0.0000  0.0000  0.0000  0.0000  1.0000  0.0000  0.0000  0.0000  0.0000  0.0000      0.0000  0.0000  0.0000  0.0000  0.0000  0.0000  0.0000  0.0000  0.0000  0.0000
atom =   6  type =  3  l = 2
 
 onsite density matrix
 
spin component  1
 
  1.1008  0.0000  0.0000  0.0000  0.0000
  0.0000  1.1008  0.0000  0.0000  0.0000
  0.0000  0.0000  1.1008  0.0000  0.0000
  0.0000  0.0000  0.0000  1.1008  0.0000
  0.0000  0.0000  0.0000  0.0000  1.1008
 
spin component  2
 
  0.5927  0.0000  0.0000  0.0000  0.0000
  0.0000  0.5927  0.0000  0.0000  0.0000
  0.0000  0.0000  0.5927  0.0000  0.0000
  0.0000  0.0000  0.0000  0.5927  0.0000
  0.0000  0.0000  0.0000  0.0000  0.5927
 
 occupancies and eigenvectors
 
  o =  0.5927  v =  0.0000  0.0000  0.0000  0.0000  0.0000  1.0000  0.0000  0.0000  0.0000  0.0000      0.0000  0.0000  0.0000  0.0000  0.0000  0.0000  0.0000  0.0000  0.0000  0.0000
  o =  0.5927  v =  0.0000  0.0000  0.0000  0.0000  0.0000  0.0000  1.0000  0.0000  0.0000  0.0000      0.0000  0.0000  0.0000  0.0000  0.0000  0.0000  0.0000  0.0000  0.0000  0.0000
  o =  0.5927  v =  0.0000  0.0000  0.0000  0.0000  0.0000  0.0000  0.0000  1.0000  0.0000  0.0000      0.0000  0.0000  0.0000  0.0000  0.0000  0.0000  0.0000  0.0000  0.0000  0.0000
  o =  0.5927  v =  0.0000  0.0000  0.0000  0.0000  0.0000  0.0000  0.0000  0.0000  1.0000  0.0000      0.0000  0.0000  0.0000  0.0000  0.0000  0.0000  0.0000  0.0000  0.0000  0.0000
  o =  0.5927  v =  0.0000  0.0000  0.0000  0.0000  0.0000  0.0000  0.0000  0.0000  0.0000  1.0000      0.0000  0.0000  0.0000  0.0000  0.0000  0.0000  0.0000  0.0000  0.0000  0.0000
  o =  1.1008  v =  1.0000  0.0000  0.0000  0.0000  0.0000  0.0000  0.0000  0.0000  0.0000  0.0000      0.0000  0.0000  0.0000  0.0000  0.0000  0.0000  0.0000  0.0000  0.0000  0.0000
  o =  1.1008  v =  0.0000  1.0000  0.0000  0.0000  0.0000  0.0000  0.0000  0.0000  0.0000  0.0000      0.0000  0.0000  0.0000  0.0000  0.0000  0.0000  0.0000  0.0000  0.0000  0.0000
  o =  1.1008  v =  0.0000  0.0000  1.0000  0.0000  0.0000  0.0000  0.0000  0.0000  0.0000  0.0000      0.0000  0.0000  0.0000  0.0000  0.0000  0.0000  0.0000  0.0000  0.0000  0.0000
  o =  1.1008  v =  0.0000  0.0000  0.0000  1.0000  0.0000  0.0000  0.0000  0.0000  0.0000  0.0000      0.0000  0.0000  0.0000  0.0000  0.0000  0.0000  0.0000  0.0000  0.0000  0.0000
  o =  1.1008  v =  0.0000  0.0000  0.0000  0.0000  1.0000  0.0000  0.0000  0.0000  0.0000  0.0000      0.0000  0.0000  0.0000  0.0000  0.0000  0.0000  0.0000  0.0000  0.0000  0.0000
atom =   7  type =  3  l = 2
 
 onsite density matrix
 
spin component  1
 
  1.1008  0.0000  0.0000  0.0000  0.0000
  0.0000  1.1008  0.0000  0.0000  0.0000
  0.0000  0.0000  1.1008  0.0000  0.0000
  0.0000  0.0000  0.0000  1.1008  0.0000
  0.0000  0.0000  0.0000  0.0000  1.1008
 
spin component  2
 
  0.5927  0.0000  0.0000  0.0000  0.0000
  0.0000  0.5927  0.0000  0.0000  0.0000
  0.0000  0.0000  0.5927  0.0000  0.0000
  0.0000  0.0000  0.0000  0.5927  0.0000
  0.0000  0.0000  0.0000  0.0000  0.5927
 
 occupancies and eigenvectors
 
  o =  0.5927  v =  0.0000  0.0000  0.0000  0.0000  0.0000  1.0000  0.0000  0.0000  0.0000  0.0000      0.0000  0.0000  0.0000  0.0000  0.0000  0.0000  0.0000  0.0000  0.0000  0.0000
  o =  0.5927  v =  0.0000  0.0000  0.0000  0.0000  0.0000  0.0000  1.0000  0.0000  0.0000  0.0000      0.0000  0.0000  0.0000  0.0000  0.0000  0.0000  0.0000  0.0000  0.0000  0.0000
  o =  0.5927  v =  0.0000  0.0000  0.0000  0.0000  0.0000  0.0000  0.0000  1.0000  0.0000  0.0000      0.0000  0.0000  0.0000  0.0000  0.0000  0.0000  0.0000  0.0000  0.0000  0.0000
  o =  0.5927  v =  0.0000  0.0000  0.0000  0.0000  0.0000  0.0000  0.0000  0.0000  1.0000  0.0000      0.0000  0.0000  0.0000  0.0000  0.0000  0.0000  0.0000  0.0000  0.0000  0.0000
  o =  0.5927  v =  0.0000  0.0000  0.0000  0.0000  0.0000  0.0000  0.0000  0.0000  0.0000  1.0000      0.0000  0.0000  0.0000  0.0000  0.0000  0.0000  0.0000  0.0000  0.0000  0.0000
  o =  1.1008  v =  1.0000  0.0000  0.0000  0.0000  0.0000  0.0000  0.0000  0.0000  0.0000  0.0000      0.0000  0.0000  0.0000  0.0000  0.0000  0.0000  0.0000  0.0000  0.0000  0.0000
  o =  1.1008  v =  0.0000  1.0000  0.0000  0.0000  0.0000  0.0000  0.0000  0.0000  0.0000  0.0000      0.0000  0.0000  0.0000  0.0000  0.0000  0.0000  0.0000  0.0000  0.0000  0.0000
  o =  1.1008  v =  0.0000  0.0000  1.0000  0.0000  0.0000  0.0000  0.0000  0.0000  0.0000  0.0000      0.0000  0.0000  0.0000  0.0000  0.0000  0.0000  0.0000  0.0000  0.0000  0.0000
  o =  1.1008  v =  0.0000  0.0000  0.0000  1.0000  0.0000  0.0000  0.0000  0.0000  0.0000  0.0000      0.0000  0.0000  0.0000  0.0000  0.0000  0.0000  0.0000  0.0000  0.0000  0.0000
  o =  1.1008  v =  0.0000  0.0000  0.0000  0.0000  1.0000  0.0000  0.0000  0.0000  0.0000  0.0000      0.0000  0.0000  0.0000  0.0000  0.0000  0.0000  0.0000  0.0000  0.0000  0.0000
atom =   8  type =  3  l = 2
 
 onsite density matrix
 
spin component  1
 
  1.1008  0.0000  0.0000  0.0000  0.0000
  0.0000  1.1008  0.0000  0.0000  0.0000
  0.0000  0.0000  1.1008  0.0000  0.0000
  0.0000  0.0000  0.0000  1.1008  0.0000
  0.0000  0.0000  0.0000  0.0000  1.1008
 
spin component  2
 
  0.5927  0.0000  0.0000  0.0000  0.0000
  0.0000  0.5927  0.0000  0.0000  0.0000
  0.0000  0.0000  0.5927  0.0000  0.0000
  0.0000  0.0000  0.0000  0.5927  0.0000
  0.0000  0.0000  0.0000  0.0000  0.5927
 
 occupancies and eigenvectors
 
  o =  0.5927  v =  0.0000  0.0000  0.0000  0.0000  0.0000  1.0000  0.0000  0.0000  0.0000  0.0000      0.0000  0.0000  0.0000  0.0000  0.0000  0.0000  0.0000  0.0000  0.0000  0.0000
  o =  0.5927  v =  0.0000  0.0000  0.0000  0.0000  0.0000  0.0000  1.0000  0.0000  0.0000  0.0000      0.0000  0.0000  0.0000  0.0000  0.0000  0.0000  0.0000  0.0000  0.0000  0.0000
  o =  0.5927  v =  0.0000  0.0000  0.0000  0.0000  0.0000  0.0000  0.0000  1.0000  0.0000  0.0000      0.0000  0.0000  0.0000  0.0000  0.0000  0.0000  0.0000  0.0000  0.0000  0.0000
  o =  0.5927  v =  0.0000  0.0000  0.0000  0.0000  0.0000  0.0000  0.0000  0.0000  1.0000  0.0000      0.0000  0.0000  0.0000  0.0000  0.0000  0.0000  0.0000  0.0000  0.0000  0.0000
  o =  0.5927  v =  0.0000  0.0000  0.0000  0.0000  0.0000  0.0000  0.0000  0.0000  0.0000  1.0000      0.0000  0.0000  0.0000  0.0000  0.0000  0.0000  0.0000  0.0000  0.0000  0.0000
  o =  1.1008  v =  1.0000  0.0000  0.0000  0.0000  0.0000  0.0000  0.0000  0.0000  0.0000  0.0000      0.0000  0.0000  0.0000  0.0000  0.0000  0.0000  0.0000  0.0000  0.0000  0.0000
  o =  1.1008  v =  0.0000  1.0000  0.0000  0.0000  0.0000  0.0000  0.0000  0.0000  0.0000  0.0000      0.0000  0.0000  0.0000  0.0000  0.0000  0.0000  0.0000  0.0000  0.0000  0.0000
  o =  1.1008  v =  0.0000  0.0000  1.0000  0.0000  0.0000  0.0000  0.0000  0.0000  0.0000  0.0000      0.0000  0.0000  0.0000  0.0000  0.0000  0.0000  0.0000  0.0000  0.0000  0.0000
  o =  1.1008  v =  0.0000  0.0000  0.0000  1.0000  0.0000  0.0000  0.0000  0.0000  0.0000  0.0000      0.0000  0.0000  0.0000  0.0000  0.0000  0.0000  0.0000  0.0000  0.0000  0.0000
  o =  1.1008  v =  0.0000  0.0000  0.0000  0.0000  1.0000  0.0000  0.0000  0.0000  0.0000  0.0000      0.0000  0.0000  0.0000  0.0000  0.0000  0.0000  0.0000  0.0000  0.0000  0.0000
atom =   9  type =  4  l = 0
 
 onsite density matrix
 
spin component  1
 
  0.8190
 
spin component  2
 
  0.8190
 
 occupancies and eigenvectors
 
  o =  0.8190  v =  1.0000  0.0000      0.0000  0.0000
  o =  0.8190  v =  0.0000  1.0000      0.0000  0.0000
atom =  10  type =  4  l = 0
 
 onsite density matrix
 
spin component  1
 
  0.8190
 
spin component  2
 
  0.8190
 
 occupancies and eigenvectors
 
  o =  0.8190  v =  1.0000  0.0000      0.0000  0.0000
  o =  0.8190  v =  0.0000  1.0000      0.0000  0.0000
atom =  11  type =  4  l = 0
 
 onsite density matrix
 
spin component  1
 
  0.8190
 
spin component  2
 
  0.8190
 
 occupancies and eigenvectors
 
  o =  0.8190  v =  1.0000  0.0000      0.0000  0.0000
  o =  0.8190  v =  0.0000  1.0000      0.0000  0.0000
atom =  12  type =  4  l = 0
 
 onsite density matrix
 
spin component  1
 
  0.8190
 
spin component  2
 
  0.8190
 
 occupancies and eigenvectors
 
  o =  0.8190  v =  1.0000  0.0000      0.0000  0.0000
  o =  0.8190  v =  0.0000  1.0000      0.0000  0.0000
atom =  13  type =  4  l = 0
 
 onsite density matrix
 
spin component  1
 
  0.8190
 
spin component  2
 
  0.8190
 
 occupancies and eigenvectors
 
  o =  0.8190  v =  1.0000  0.0000      0.0000  0.0000
  o =  0.8190  v =  0.0000  1.0000      0.0000  0.0000
atom =  14  type =  4  l = 0
 
 onsite density matrix
 
spin component  1
 
  0.8190
 
spin component  2
 
  0.8190
 
 occupancies and eigenvectors
 
  o =  0.8190  v =  1.0000  0.0000      0.0000  0.0000
  o =  0.8190  v =  0.0000  1.0000      0.0000  0.0000
atom =  15  type =  4  l = 0
 
 onsite density matrix
 
spin component  1
 
  0.8190
 
spin component  2
 
  0.8190
 
 occupancies and eigenvectors
 
  o =  0.8190  v =  1.0000  0.0000      0.0000  0.0000
  o =  0.8190  v =  0.0000  1.0000      0.0000  0.0000
atom =  16  type =  4  l = 0
 
 onsite density matrix
 
spin component  1
 
  0.8190
 
spin component  2
 
  0.8190
 
 occupancies and eigenvectors
 
  o =  0.8190  v =  1.0000  0.0000      0.0000  0.0000
  o =  0.8190  v =  0.0000  1.0000      0.0000  0.0000
atom =  17  type =  4  l = 0
 
 onsite density matrix
 
spin component  1
 
  0.8190
 
spin component  2
 
  0.8190
 
 occupancies and eigenvectors
 
  o =  0.8190  v =  1.0000  0.0000      0.0000  0.0000
  o =  0.8190  v =  0.0000  1.0000      0.0000  0.0000
atom =  18  type =  4  l = 0
 
 onsite density matrix
 
spin component  1
 
  0.8190
 
spin component  2
 
  0.8190
 
 occupancies and eigenvectors
 
  o =  0.8190  v =  1.0000  0.0000      0.0000  0.0000
  o =  0.8190  v =  0.0000  1.0000      0.0000  0.0000
atom =  19  type =  4  l = 0
 
 onsite density matrix
 
spin component  1
 
  0.8190
 
spin component  2
 
  0.8190
 
 occupancies and eigenvectors
 
  o =  0.8190  v =  1.0000  0.0000      0.0000  0.0000
  o =  0.8190  v =  0.0000  1.0000      0.0000  0.0000
atom =  20  type =  4  l = 0
 
 onsite density matrix
 
spin component  1
 
  0.8190
 
spin component  2
 
  0.8190
 
 occupancies and eigenvectors
 
  o =  0.8190  v =  1.0000  0.0000      0.0000  0.0000
  o =  0.8190  v =  0.0000  1.0000      0.0000  0.0000
     EDDAV:  cpu time    2.4706: real time    2.4802
 BZINTS: Fermi energy: 29.930294;153.000000 electrons
         Band energy:2202.912531;  BLOECHL correction: -0.398368
       DOS:  cpu time    0.0381: real time    0.0387
    --------------------------------------------
      LOOP:  cpu time    2.5701: real time    2.5834

 eigenvalue-minimisations  :  7544
 total energy-change (2. order) : 0.2276719E+04  (-0.5606742E+04)
 number of electron     153.0000000 magnetization      13.0000000
 augmentation part      153.0000000 magnetization      13.0000000

 Free energy of the ion-electron system (eV)
  ---------------------------------------------------
  alpha Z        PSCENC =       661.41424563
  Ewald energy   TEWEN  =    -10772.33304830
  -Hartree energ DENC   =     -2538.97226786
  -exchange      EXHF   =         0.00000000
  -V(xc)+E(xc)   XCENC  =       546.17902445
  PAW double counting   =     10024.85533752   -10149.29831327
  entropy T*S    EENTRO =         0.00000000
  eigenvalues    EBANDS =      2202.91253137
  atomic energy  EATOM  =     12301.96174248
  Solvation  Ediel_sol  =         0.00000000
  ---------------------------------------------------
  free energy    TOTEN  =      2276.71925202 eV

  energy without entropy =     2276.71925202  energy(sigma->0) =     2276.71925202


--------------------------------------------------------------------------------------------------------




--------------------------------------- Iteration      1(   2)  ---------------------------------------


     EDDAV:  cpu time    2.5372: real time    2.5538
 BZINTS: Fermi energy: 15.977237;153.000000 electrons
         Band energy: 648.606135;  BLOECHL correction: -0.107566
       DOS:  cpu time    0.0382: real time    0.0383
    --------------------------------------------
      LOOP:  cpu time    2.5754: real time    2.5921

 eigenvalue-minimisations  :  7928
 total energy-change (2. order) :-0.1554306E+04  (-0.1409674E+04)
 number of electron     153.0000000 magnetization      13.0000000
 augmentation part      153.0000000 magnetization      13.0000000

 Free energy of the ion-electron system (eV)
  ---------------------------------------------------
  alpha Z        PSCENC =       661.41424563
  Ewald energy   TEWEN  =    -10772.33304830
  -Hartree energ DENC   =     -2538.97226786
  -exchange      EXHF   =         0.00000000
  -V(xc)+E(xc)   XCENC  =       546.17902445
  PAW double counting   =     10024.85533752   -10149.29831327
  entropy T*S    EENTRO =         0.00000000
  eigenvalues    EBANDS =       648.60613454
  atomic energy  EATOM  =     12301.96174248
  Solvation  Ediel_sol  =         0.00000000
  ---------------------------------------------------
  free energy    TOTEN  =       722.41285519 eV

  energy without entropy =      722.41285519  energy(sigma->0) =      722.41285519


--------------------------------------------------------------------------------------------------------




--------------------------------------- Iteration      1(   3)  ---------------------------------------


     EDDAV:  cpu time    2.5426: real time    2.5519
 BZINTS: Fermi energy: 12.348230;153.000000 electrons
         Band energy:  38.973940;  BLOECHL correction: -0.027319
       DOS:  cpu time    0.0407: real time    0.0408
    --------------------------------------------
      LOOP:  cpu time    2.5833: real time    2.5926

 eigenvalue-minimisations  :  7994
 total energy-change (2. order) :-0.6096322E+03  (-0.5557508E+03)
 number of electron     153.0000000 magnetization      13.0000000
 augmentation part      153.0000000 magnetization      13.0000000

 Free energy of the ion-electron system (eV)
  ---------------------------------------------------
  alpha Z        PSCENC =       661.41424563
  Ewald energy   TEWEN  =    -10772.33304830
  -Hartree energ DENC   =     -2538.97226786
  -exchange      EXHF   =         0.00000000
  -V(xc)+E(xc)   XCENC  =       546.17902445
  PAW double counting   =     10024.85533752   -10149.29831327
  entropy T*S    EENTRO =         0.00000000
  eigenvalues    EBANDS =        38.97394042
  atomic energy  EATOM  =     12301.96174248
  Solvation  Ediel_sol  =         0.00000000
  ---------------------------------------------------
  free energy    TOTEN  =       112.78066107 eV

  energy without entropy =      112.78066107  energy(sigma->0) =      112.78066107


--------------------------------------------------------------------------------------------------------




--------------------------------------- Iteration      1(   4)  ---------------------------------------


     EDDAV:  cpu time    3.4967: real time    3.5123
 BZINTS: Fermi energy: 11.748575;153.000000 electrons
         Band energy:-193.385719;  BLOECHL correction: -0.021898
       DOS:  cpu time    0.0401: real time    0.0401
    --------------------------------------------
      LOOP:  cpu time    3.5367: real time    3.5525

 eigenvalue-minimisations  : 11634
 total energy-change (2. order) :-0.2323597E+03  (-0.2210018E+03)
 number of electron     153.0000000 magnetization      13.0000000
 augmentation part      153.0000000 magnetization      13.0000000

 Free energy of the ion-electron system (eV)
  ---------------------------------------------------
  alpha Z        PSCENC =       661.41424563
  Ewald energy   TEWEN  =    -10772.33304830
  -Hartree energ DENC   =     -2538.97226786
  -exchange      EXHF   =         0.00000000
  -V(xc)+E(xc)   XCENC  =       546.17902445
  PAW double counting   =     10024.85533752   -10149.29831327
  entropy T*S    EENTRO =         0.00000000
  eigenvalues    EBANDS =      -193.38571942
  atomic energy  EATOM  =     12301.96174248
  Solvation  Ediel_sol  =         0.00000000
  ---------------------------------------------------
  free energy    TOTEN  =      -119.57899877 eV

  energy without entropy =     -119.57899877  energy(sigma->0) =     -119.57899877


--------------------------------------------------------------------------------------------------------




--------------------------------------- Iteration      1(   5)  ---------------------------------------


     EDDAV:  cpu time    3.8554: real time    3.8756
 BZINTS: Fermi energy: 11.254154;153.000000 electrons
         Band energy:-236.371028;  BLOECHL correction: -0.078285
       DOS:  cpu time    0.0405: real time    0.0408
    CHARGE:  cpu time    0.1232: real time    0.1238
    MIXING:  cpu time    0.0023: real time    0.0024
    --------------------------------------------
      LOOP:  cpu time    4.0215: real time    4.0426

 eigenvalue-minimisations  : 13060
 total energy-change (2. order) :-0.4298531E+02  (-0.4146895E+02)
 number of electron     153.0000089 magnetization      12.4026935
 augmentation part       21.2379469 magnetization       9.4263490

 Broyden mixing:
  rms(total) = 0.67106E+01    rms(broyden)= 0.67103E+01
  rms(prec ) = 0.74566E+01
  weight for this iteration     100.00

 Free energy of the ion-electron system (eV)
  ---------------------------------------------------
  alpha Z        PSCENC =       661.41424563
  Ewald energy   TEWEN  =    -10772.33304830
  -Hartree energ DENC   =     -2538.97226786
  -exchange      EXHF   =         0.00000000
  -V(xc)+E(xc)   XCENC  =       546.17902445
  PAW double counting   =     10024.85533752   -10149.29831327
  entropy T*S    EENTRO =         0.00000000
  eigenvalues    EBANDS =      -236.37102803
  atomic energy  EATOM  =     12301.96174248
  Solvation  Ediel_sol  =         0.00000000
  ---------------------------------------------------
  free energy    TOTEN  =      -162.56430738 eV

  energy without entropy =     -162.56430738  energy(sigma->0) =     -162.56430738


--------------------------------------------------------------------------------------------------------




--------------------------------------- Iteration      1(   6)  ---------------------------------------


    POTLOK:  cpu time    0.0468: real time    0.0481
    SETDIJ:  cpu time    0.0090: real time    0.0091
atom =   1  type =  1  l = 0
 
 onsite density matrix
 
spin component  1
 
  1.0567
 
spin component  2
 
  1.0568
 
 occupancies and eigenvectors
 
  o =  1.0567  v =  1.0000  0.0000      0.0000  0.0000
  o =  1.0568  v =  0.0000  1.0000      0.0000  0.0000
atom =   2  type =  1  l = 0
 
 onsite density matrix
 
spin component  1
 
  1.0572
 
spin component  2
 
  1.0581
 
 occupancies and eigenvectors
 
  o =  1.0572  v =  1.0000  0.0000      0.0000  0.0000
  o =  1.0581  v =  0.0000  1.0000      0.0000  0.0000
atom =   3  type =  1  l = 0
 
 onsite density matrix
 
spin component  1
 
  1.0566
 
spin component  2
 
  1.0570
 
 occupancies and eigenvectors
 
  o =  1.0566  v =  1.0000  0.0000      0.0000  0.0000
  o =  1.0570  v =  0.0000  1.0000      0.0000  0.0000
atom =   4  type =  1  l = 0
 
 onsite density matrix
 
spin component  1
 
  1.0572
 
spin component  2
 
  1.0581
 
 occupancies and eigenvectors
 
  o =  1.0572  v =  1.0000  0.0000      0.0000  0.0000
  o =  1.0581  v =  0.0000  1.0000      0.0000  0.0000
atom =   5  type =  2  l = 2
 
 onsite density matrix
 
spin component  1
 
  0.9709 -0.0000  0.0000 -0.0075  0.0000
 -0.0000  0.9711 -0.0008  0.0000  0.0014
  0.0000 -0.0008  0.3616 -0.0000 -0.0258
 -0.0075  0.0000 -0.0000  0.9709  0.0000
  0.0000  0.0014 -0.0258  0.0000  0.3913
 
spin component  2
 
  0.0230  0.0000 -0.0000  0.0052 -0.0000
  0.0000  0.0271  0.0006 -0.0000 -0.0011
 -0.0000  0.0006  0.4469  0.0000  0.0181
  0.0052 -0.0000  0.0000  0.0230 -0.0000
 -0.0000 -0.0011  0.0181 -0.0000  0.4260
 
 occupancies and eigenvectors
 
  o =  0.0179  v =  0.0000  0.0000  0.0000  0.0000  0.0000 -0.7071  0.0000 -0.0000  0.7071 -0.0000      0.0000  0.0000  0.0000  0.0000  0.0000  0.0000  0.0000  0.0000  0.0000  0.0000
  o =  0.0271  v =  0.0000  0.0000  0.0000  0.0000  0.0000  0.0000 -1.0000  0.0017  0.0000 -0.0029      0.0000  0.0000  0.0000  0.0000  0.0000  0.0000  0.0000  0.0000  0.0000  0.0000
  o =  0.0282  v =  0.0000  0.0000  0.0000  0.0000  0.0000 -0.7071 -0.0000  0.0000 -0.7071  0.0000      0.0000  0.0000  0.0000  0.0000  0.0000  0.0000  0.0000  0.0000  0.0000  0.0000
  o =  0.3467  v =  0.0000 -0.0000  0.8660  0.0000  0.5000  0.0000  0.0000  0.0000  0.0000  0.0000      0.0000  0.0000  0.0000  0.0000  0.0000  0.0000  0.0000  0.0000  0.0000  0.0000
  o =  0.4062  v =  0.0000 -0.0029 -0.5000  0.0000  0.8660  0.0000  0.0000  0.0000  0.0000  0.0000      0.0000  0.0000  0.0000  0.0000  0.0000  0.0000  0.0000  0.0000  0.0000  0.0000
  o =  0.4155  v =  0.0000  0.0000  0.0000  0.0000  0.0000  0.0000 -0.0033 -0.5000 -0.0000  0.8660      0.0000  0.0000  0.0000  0.0000  0.0000  0.0000  0.0000  0.0000  0.0000  0.0000
  o =  0.4574  v =  0.0000  0.0000  0.0000  0.0000  0.0000  0.0000  0.0000  0.8660  0.0000  0.5000      0.0000  0.0000  0.0000  0.0000  0.0000  0.0000  0.0000  0.0000  0.0000  0.0000
  o =  0.9634  v =  0.7071  0.0000 -0.0000  0.7071 -0.0000  0.0000  0.0000  0.0000  0.0000  0.0000      0.0000  0.0000  0.0000  0.0000  0.0000  0.0000  0.0000  0.0000  0.0000  0.0000
  o =  0.9711  v =  0.0000 -1.0000  0.0015 -0.0000 -0.0025  0.0000  0.0000  0.0000  0.0000  0.0000      0.0000  0.0000  0.0000  0.0000  0.0000  0.0000  0.0000  0.0000  0.0000  0.0000
  o =  0.9784  v = -0.7071  0.0000 -0.0000  0.7071 -0.0000  0.0000  0.0000  0.0000  0.0000  0.0000      0.0000  0.0000  0.0000  0.0000  0.0000  0.0000  0.0000  0.0000  0.0000  0.0000
atom =   6  type =  3  l = 2
 
 onsite density matrix
 
spin component  1
 
  1.0159 -0.0000 -0.0000  0.0027 -0.0000
 -0.0000  0.9756  0.0012 -0.0000 -0.0021
 -0.0000  0.0012  1.3219 -0.0000 -0.0035
  0.0027 -0.0000 -0.0000  1.0159 -0.0000
 -0.0000 -0.0021 -0.0035 -0.0000  1.3259
 
spin component  2
 
  0.6117 -0.0000  0.0000 -0.0044 -0.0000
 -0.0000  0.6777 -0.0017  0.0000  0.0029
  0.0000 -0.0017  0.1841  0.0000 -0.0008
 -0.0044  0.0000  0.0000  0.6117 -0.0000
 -0.0000  0.0029 -0.0008 -0.0000  0.1850
 
 occupancies and eigenvectors
 
  o =  0.1837  v =  0.0000  0.0000  0.0000  0.0000  0.0000  0.0000  0.0000 -0.8660 -0.0000 -0.5000      0.0000  0.0000  0.0000  0.0000  0.0000  0.0000  0.0000  0.0000  0.0000  0.0000
  o =  0.1854  v =  0.0000  0.0000  0.0000  0.0000  0.0000  0.0000 -0.0069 -0.5000 -0.0000  0.8660      0.0000  0.0000  0.0000  0.0000  0.0000  0.0000  0.0000  0.0000  0.0000  0.0000
  o =  0.6072  v =  0.0000  0.0000  0.0000  0.0000  0.0000 -0.7071  0.0000 -0.0000 -0.7071  0.0000      0.0000  0.0000  0.0000  0.0000  0.0000  0.0000  0.0000  0.0000  0.0000  0.0000
  o =  0.6161  v =  0.0000  0.0000  0.0000  0.0000  0.0000  0.7071  0.0000 -0.0000 -0.7071  0.0000      0.0000  0.0000  0.0000  0.0000  0.0000  0.0000  0.0000  0.0000  0.0000  0.0000
  o =  0.6777  v =  0.0000  0.0000  0.0000  0.0000  0.0000  0.0000 -1.0000  0.0035 -0.0000 -0.0060      0.0000  0.0000  0.0000  0.0000  0.0000  0.0000  0.0000  0.0000  0.0000  0.0000
  o =  0.9755  v =  0.0000  1.0000 -0.0034 -0.0000  0.0059  0.0000  0.0000  0.0000  0.0000  0.0000      0.0000  0.0000  0.0000  0.0000  0.0000  0.0000  0.0000  0.0000  0.0000  0.0000
  o =  1.0132  v =  0.7071 -0.0000  0.0000 -0.7071 -0.0000  0.0000  0.0000  0.0000  0.0000  0.0000      0.0000  0.0000  0.0000  0.0000  0.0000  0.0000  0.0000  0.0000  0.0000  0.0000
  o =  1.0186  v =  0.7071  0.0000 -0.0000  0.7071  0.0000  0.0000  0.0000  0.0000  0.0000  0.0000      0.0000  0.0000  0.0000  0.0000  0.0000  0.0000  0.0000  0.0000  0.0000  0.0000
  o =  1.3199  v =  0.0000  0.0000  0.8660  0.0000  0.5000  0.0000  0.0000  0.0000  0.0000  0.0000      0.0000  0.0000  0.0000  0.0000  0.0000  0.0000  0.0000  0.0000  0.0000  0.0000
  o =  1.3279  v =  0.0000 -0.0068 -0.5000 -0.0000  0.8660  0.0000  0.0000  0.0000  0.0000  0.0000      0.0000  0.0000  0.0000  0.0000  0.0000  0.0000  0.0000  0.0000  0.0000  0.0000
atom =   7  type =  3  l = 2
 
 onsite density matrix
 
spin component  1
 
  0.9367 -0.0000 -0.0000 -0.0005  0.0000
 -0.0000  1.0021 -0.0014  0.0000  0.0025
 -0.0000 -0.0014  1.3352  0.0000 -0.0007
 -0.0005  0.0000  0.0000  0.9367  0.0000
  0.0000  0.0025 -0.0007  0.0000  1.3360
 
spin component  2
 
  0.7459 -0.0000 -0.0000  0.0012 -0.0000
 -0.0000  0.6387  0.0019  0.0000 -0.0032
 -0.0000  0.0019  0.1934 -0.0000  0.0035
  0.0012  0.0000 -0.0000  0.7459 -0.0000
 -0.0000 -0.0032  0.0035 -0.0000  0.1894
 
 occupancies and eigenvectors
 
  o =  0.1873  v =  0.0000  0.0000  0.0000  0.0000  0.0000 -0.0000 -0.0082  0.5000  0.0000 -0.8660      0.0000  0.0000  0.0000  0.0000  0.0000  0.0000  0.0000  0.0000  0.0000  0.0000
  o =  0.1954  v =  0.0000  0.0000  0.0000  0.0000  0.0000  0.0000  0.0000  0.8660 -0.0000  0.5000      0.0000  0.0000  0.0000  0.0000  0.0000  0.0000  0.0000  0.0000  0.0000  0.0000
  o =  0.6388  v =  0.0000  0.0000  0.0000  0.0000  0.0000 -0.0000  1.0000  0.0041  0.0000 -0.0071      0.0000  0.0000  0.0000  0.0000  0.0000  0.0000  0.0000  0.0000  0.0000  0.0000
  o =  0.7447  v =  0.0000  0.0000  0.0000  0.0000  0.0000  0.7071  0.0000  0.0000 -0.7071 -0.0000      0.0000  0.0000  0.0000  0.0000  0.0000  0.0000  0.0000  0.0000  0.0000  0.0000
  o =  0.7471  v =  0.0000  0.0000  0.0000  0.0000  0.0000 -0.7071  0.0000  0.0000 -0.7071 -0.0000      0.0000  0.0000  0.0000  0.0000  0.0000  0.0000  0.0000  0.0000  0.0000  0.0000
  o =  0.9362  v = -0.7071  0.0000  0.0000 -0.7071 -0.0000  0.0000  0.0000  0.0000  0.0000  0.0000      0.0000  0.0000  0.0000  0.0000  0.0000  0.0000  0.0000  0.0000  0.0000  0.0000
  o =  0.9372  v =  0.7071  0.0000  0.0000 -0.7071 -0.0000  0.0000  0.0000  0.0000  0.0000  0.0000      0.0000  0.0000  0.0000  0.0000  0.0000  0.0000  0.0000  0.0000  0.0000  0.0000
  o =  1.0021  v =  0.0000  1.0000  0.0043  0.0000 -0.0074  0.0000  0.0000  0.0000  0.0000  0.0000      0.0000  0.0000  0.0000  0.0000  0.0000  0.0000  0.0000  0.0000  0.0000  0.0000
  o =  1.3349  v =  0.0000  0.0000  0.8660 -0.0000  0.5000  0.0000  0.0000  0.0000  0.0000  0.0000      0.0000  0.0000  0.0000  0.0000  0.0000  0.0000  0.0000  0.0000  0.0000  0.0000
  o =  1.3364  v =  0.0000 -0.0085  0.5000  0.0000 -0.8660  0.0000  0.0000  0.0000  0.0000  0.0000      0.0000  0.0000  0.0000  0.0000  0.0000  0.0000  0.0000  0.0000  0.0000  0.0000
atom =   8  type =  3  l = 2
 
 onsite density matrix
 
spin component  1
 
  1.0159  0.0000 -0.0000  0.0027  0.0000
  0.0000  0.9756  0.0012  0.0000 -0.0021
 -0.0000  0.0012  1.3219 -0.0000 -0.0035
  0.0027  0.0000 -0.0000  1.0159 -0.0000
  0.0000 -0.0021 -0.0035 -0.0000  1.3259
 
spin component  2
 
  0.6117 -0.0000  0.0000 -0.0044  0.0000
 -0.0000  0.6777 -0.0017 -0.0000  0.0029
  0.0000 -0.0017  0.1841  0.0000 -0.0008
 -0.0044 -0.0000  0.0000  0.6117 -0.0000
  0.0000  0.0029 -0.0008 -0.0000  0.1850
 
 occupancies and eigenvectors
 
  o =  0.1837  v =  0.0000  0.0000  0.0000  0.0000  0.0000  0.0000 -0.0000 -0.8660  0.0000 -0.5000      0.0000  0.0000  0.0000  0.0000  0.0000  0.0000  0.0000  0.0000  0.0000  0.0000
  o =  0.1854  v =  0.0000  0.0000  0.0000  0.0000  0.0000  0.0000 -0.0069 -0.5000  0.0000  0.8660      0.0000  0.0000  0.0000  0.0000  0.0000  0.0000  0.0000  0.0000  0.0000  0.0000
  o =  0.6072  v =  0.0000  0.0000  0.0000  0.0000  0.0000 -0.7071  0.0000 -0.0000 -0.7071  0.0000      0.0000  0.0000  0.0000  0.0000  0.0000  0.0000  0.0000  0.0000  0.0000  0.0000
  o =  0.6161  v =  0.0000  0.0000  0.0000  0.0000  0.0000  0.7071  0.0000 -0.0000 -0.7071  0.0000      0.0000  0.0000  0.0000  0.0000  0.0000  0.0000  0.0000  0.0000  0.0000  0.0000
  o =  0.6777  v =  0.0000  0.0000  0.0000  0.0000  0.0000  0.0000 -1.0000  0.0035 -0.0000 -0.0060      0.0000  0.0000  0.0000  0.0000  0.0000  0.0000  0.0000  0.0000  0.0000  0.0000
  o =  0.9755  v =  0.0000  1.0000 -0.0034 -0.0000  0.0059  0.0000  0.0000  0.0000  0.0000  0.0000      0.0000  0.0000  0.0000  0.0000  0.0000  0.0000  0.0000  0.0000  0.0000  0.0000
  o =  1.0132  v = -0.7071  0.0000 -0.0000  0.7071  0.0000  0.0000  0.0000  0.0000  0.0000  0.0000      0.0000  0.0000  0.0000  0.0000  0.0000  0.0000  0.0000  0.0000  0.0000  0.0000
  o =  1.0186  v = -0.7071  0.0000  0.0000 -0.7071  0.0000  0.0000  0.0000  0.0000  0.0000  0.0000      0.0000  0.0000  0.0000  0.0000  0.0000  0.0000  0.0000  0.0000  0.0000  0.0000
  o =  1.3199  v =  0.0000  0.0000  0.8660  0.0000  0.5000  0.0000  0.0000  0.0000  0.0000  0.0000      0.0000  0.0000  0.0000  0.0000  0.0000  0.0000  0.0000  0.0000  0.0000  0.0000
  o =  1.3279  v =  0.0000  0.0068  0.5000  0.0000 -0.8660  0.0000  0.0000  0.0000  0.0000  0.0000      0.0000  0.0000  0.0000  0.0000  0.0000  0.0000  0.0000  0.0000  0.0000  0.0000
atom =   9  type =  4  l = 0
 
 onsite density matrix
 
spin component  1
 
  0.8160
 
spin component  2
 
  0.8147
 
 occupancies and eigenvectors
 
  o =  0.8147  v =  0.0000  1.0000      0.0000  0.0000
  o =  0.8160  v =  1.0000  0.0000      0.0000  0.0000
atom =  10  type =  4  l = 0
 
 onsite density matrix
 
spin component  1
 
  0.8195
 
spin component  2
 
  0.8109
 
 occupancies and eigenvectors
 
  o =  0.8109  v =  0.0000  1.0000      0.0000  0.0000
  o =  0.8195  v =  1.0000  0.0000      0.0000  0.0000
atom =  11  type =  4  l = 0
 
 onsite density matrix
 
spin component  1
 
  0.8195
 
spin component  2
 
  0.8109
 
 occupancies and eigenvectors
 
  o =  0.8109  v =  0.0000  1.0000      0.0000  0.0000
  o =  0.8195  v =  1.0000  0.0000      0.0000  0.0000
atom =  12  type =  4  l = 0
 
 onsite density matrix
 
spin component  1
 
  0.8160
 
spin component  2
 
  0.8147
 
 occupancies and eigenvectors
 
  o =  0.8147  v =  0.0000  1.0000      0.0000  0.0000
  o =  0.8160  v =  1.0000  0.0000      0.0000  0.0000
atom =  13  type =  4  l = 0
 
 onsite density matrix
 
spin component  1
 
  0.8160
 
spin component  2
 
[...]
  0.000   0.000   0.000  -0.030  -0.000   0.000   0.009  -0.000  -0.000   0.000  -0.000   0.000  -0.000   0.000   0.000   0.000
  0.000  -0.000   0.000   0.000   0.017  -0.000   0.000  -0.006   0.000   0.000   0.000  -0.000   0.000   0.000   0.000   0.000
  0.000   0.000   0.001  -0.001  -0.000   0.000   0.001   0.000   0.000  -0.000  -0.000  -0.000   0.000  -0.000  -0.000  -0.000
  0.000   0.000   0.000   0.000  -0.022   0.000   0.000   0.008   0.000   0.000   0.000  -0.000   0.000   0.000   0.000   0.000
  0.000   0.000  -0.031  -0.001  -0.000   0.009   0.000  -0.000   0.000   0.000   0.000   0.000   0.000   0.000  -0.000   0.000
  0.000   0.000   0.000   0.000  -0.001   0.000   0.000   0.001   0.000   0.000  -0.000   0.000   0.000  -0.000   0.000  -0.000
 -0.000  -0.000  -0.025   0.001   0.000   0.008   0.000  -0.000   0.000   0.000  -0.000  -0.000   0.000  -0.000   0.000  -0.000
  0.000  -0.000  -0.000   0.040  -0.000  -0.000  -0.013   0.000  -0.000  -0.000  -0.000   0.000   0.000   0.000   0.000   0.000
  0.000   0.000   0.000   0.000  -0.023   0.000  -0.000   0.008   0.000   0.000   0.000   0.000   0.000   0.000   0.000   0.000
  0.000  -0.000  -0.002   0.001  -0.000  -0.000  -0.001   0.000   0.000   0.000   0.000   0.000   0.000   0.000  -0.000  -0.000
  0.000   0.000  -0.000  -0.000   0.029   0.000   0.000  -0.010   0.000   0.000   0.000  -0.000   0.000   0.000   0.000   0.000
 total augmentation occupancy for first ion, spin component:           2
  0.000   0.001   0.000   0.000   0.000   0.000   0.000   0.000  -0.000   0.000  -0.000   0.000   0.000   0.000  -0.000   0.000
  0.001   0.002   0.000   0.000   0.000   0.000   0.000   0.000  -0.000   0.001  -0.000  -0.000   0.000   0.000  -0.000   0.000
  0.000   0.000  -0.000  -0.000   0.000   0.000   0.000   0.000   0.000   0.000   0.000   0.000   0.000  -0.000   0.000   0.000
 -0.000  -0.000  -0.000  -0.000   0.000   0.000   0.000   0.000   0.000   0.000   0.000   0.000   0.000   0.000  -0.000  -0.000
  0.000   0.000   0.000   0.000  -0.000   0.000   0.000   0.000   0.000   0.000   0.000   0.000   0.000   0.000   0.000   0.000
 -0.000   0.000   0.000   0.000   0.000   0.000  -0.000   0.000   0.000   0.000   0.000   0.000   0.000  -0.000   0.000   0.000
  0.000   0.000   0.000   0.000   0.000  -0.000   0.000   0.000   0.000   0.000  -0.000   0.000   0.000  -0.000  -0.000   0.000
  0.000   0.000   0.000   0.000   0.000   0.000   0.000   0.000  -0.000   0.000  -0.000   0.000   0.000   0.000   0.000  -0.000
 -0.000  -0.000   0.000   0.000  -0.000   0.000   0.000   0.000   0.005  -0.000   0.000  -0.001   0.000  -0.001   0.000   0.000
  0.000   0.001   0.000   0.000   0.000   0.000   0.000   0.000  -0.000   0.005   0.000   0.000  -0.000  -0.000  -0.002   0.000
 -0.000  -0.000   0.000   0.000   0.000   0.000   0.000   0.000   0.000   0.000   0.006   0.000  -0.000  -0.000   0.000  -0.002
  0.000  -0.000   0.000   0.000   0.000   0.000   0.000  -0.000  -0.001   0.000   0.000   0.005   0.000   0.000   0.000   0.000
  0.000   0.000   0.000  -0.000   0.000  -0.000   0.000  -0.000   0.000  -0.000  -0.000   0.000   0.007   0.000  -0.000   0.000
  0.000   0.000  -0.000  -0.000  -0.000  -0.000   0.000   0.000  -0.001  -0.000   0.000   0.000   0.000   0.000   0.000   0.000
 -0.000  -0.000   0.000  -0.000   0.000  -0.000   0.000   0.000   0.000  -0.002   0.000   0.000  -0.000   0.000   0.000  -0.000
  0.000   0.000   0.000  -0.000   0.000   0.000   0.000  -0.000   0.000   0.000  -0.002   0.000   0.000   0.000  -0.000   0.001
  0.000  -0.000   0.000   0.000   0.000  -0.000  -0.000  -0.000   0.000   0.000   0.000  -0.001   0.000  -0.000   0.000   0.000
 -0.000  -0.000   0.000   0.000  -0.000  -0.000   0.000  -0.000   0.000  -0.000   0.000   0.000  -0.002   0.000   0.000  -0.000
  0.000   0.000   0.000  -0.000  -0.000  -0.000   0.000  -0.000  -0.000   0.000   0.000   0.000   0.000  -0.000   0.000  -0.000
  0.000   0.000  -0.000  -0.000   0.000   0.000   0.000  -0.000   0.000   0.000  -0.000  -0.000   0.000  -0.000   0.000   0.000
  0.000  -0.000   0.000  -0.000   0.000  -0.000  -0.000   0.000   0.000   0.000  -0.000   0.000   0.000   0.000   0.000  -0.000
 -0.000  -0.000   0.000  -0.000   0.000  -0.000   0.000  -0.000   0.000   0.000   0.000  -0.000   0.000   0.000   0.000   0.000
  0.000  -0.000   0.000   0.000   0.000   0.000   0.000  -0.000  -0.000   0.000  -0.000  -0.000   0.000   0.000   0.000  -0.000
 -0.000   0.000  -0.000  -0.000  -0.000   0.000  -0.000   0.000   0.000   0.000   0.000  -0.000   0.000   0.000   0.000  -0.000
  0.000   0.000  -0.000   0.000  -0.000   0.000   0.000   0.000   0.000   0.000   0.000   0.000   0.000   0.000   0.000   0.000
  0.000   0.000  -0.000   0.000   0.000   0.000  -0.000   0.000   0.000   0.000   0.000   0.000   0.000  -0.000  -0.000   0.000
  0.000   0.000  -0.000   0.000  -0.000   0.000   0.000   0.000  -0.000   0.000  -0.000   0.000   0.000  -0.000   0.000   0.000
  0.000  -0.000  -0.000  -0.000  -0.000   0.000   0.000   0.000  -0.000   0.000  -0.000   0.000   0.000  -0.000  -0.000   0.000
 -0.000   0.000  -0.000   0.000   0.000   0.000  -0.000   0.000   0.000   0.000   0.000   0.000  -0.000   0.000   0.000   0.000
 -0.000  -0.000   0.000   0.000  -0.000   0.000   0.000   0.000   0.000   0.000  -0.000   0.000   0.000  -0.000   0.000   0.000
 -0.000   0.000   0.000   0.000   0.000  -0.000   0.000   0.000  -0.000  -0.000   0.000   0.000   0.000   0.000   0.000   0.000
  0.000   0.000   0.000   0.000   0.000   0.000   0.000  -0.000   0.000   0.000   0.000   0.000   0.000   0.000  -0.000   0.000


------------------------ aborting loop because EDIFF is reached ----------------------------------------


 


 total charge     
 
# of ion       s       p       d       f       tot
--------------------------------------------------
    1        1.999   5.701   0.491   0.190   8.382
    2        2.000   5.701   0.497   0.193   8.391
    3        2.000   5.702   0.498   0.195   8.395
    4        2.001   5.701   0.497   0.193   8.392
    5        0.350   0.557   4.869   0.000   5.776
    6        0.410   0.606   8.311   0.000   9.327
    7        0.444   0.680   8.327   0.000   9.451
    8        0.410   0.606   8.311   0.000   9.327
    9        1.562   3.458   0.000   0.000   5.021
   10        1.563   3.435   0.000   0.000   4.998
   11        1.563   3.435   0.000   0.000   4.998
   12        1.562   3.458   0.000   0.000   5.021
   13        1.562   3.458   0.000   0.000   5.021
   14        1.562   3.458   0.000   0.000   5.021
   15        1.563   3.435   0.000   0.000   4.998
   16        1.563   3.435   0.000   0.000   4.998
   17        1.564   3.465   0.000   0.000   5.029
   18        1.560   3.439   0.000   0.000   4.999
   19        1.564   3.437   0.000   0.000   5.001
   20        1.560   3.439   0.000   0.000   4.999
--------------------------------------------------
tot         28.362  66.606  31.803   0.771 127.543

 


 magnetization (x)
 
# of ion       s       p       d       f       tot
--------------------------------------------------
    1        0.000  -0.001   0.005   0.002   0.006
    2        0.000   0.000   0.006   0.003   0.010
    3        0.000   0.001   0.009   0.004   0.014
    4        0.000   0.000   0.006   0.003   0.010
    5        0.022   0.027   3.285   0.000   3.334
    6        0.013   0.005   1.504   0.000   1.523
    7        0.019   0.014   1.253   0.000   1.286
    8        0.013   0.005   1.504   0.000   1.523
    9        0.005  -0.026   0.000   0.000  -0.022
   10        0.006  -0.092   0.000   0.000  -0.086
   11        0.006  -0.092   0.000   0.000  -0.086
   12        0.005  -0.026   0.000   0.000  -0.022
   13        0.005  -0.026   0.000   0.000  -0.022
   14        0.005  -0.026   0.000   0.000  -0.022
   15        0.006  -0.092   0.000   0.000  -0.086
   16        0.006  -0.092   0.000   0.000  -0.086
   17        0.002  -0.057   0.000   0.000  -0.054
   18        0.006  -0.069   0.000   0.000  -0.064
   19        0.007  -0.086   0.000   0.000  -0.079
   20        0.006  -0.069   0.000   0.000  -0.064
--------------------------------------------------
tot          0.130  -0.701   7.572   0.012   7.014

 
    CHARGE:  cpu time    0.1216: real time    0.1222
    FORLOC:  cpu time    0.0058: real time    0.0058
    FORNL :  cpu time    0.6882: real time    0.6959
    STRESS:  cpu time    2.0669: real time    2.0837
    FORCOR:  cpu time    0.0533: real time    0.0535
    FORHAR:  cpu time    0.0107: real time    0.0108
    MIXING:  cpu time    0.0031: real time    0.0031
    OFIELD:  cpu time    0.0001: real time    0.0001

  FORCE on cell =-STRESS in cart. coord.  units (eV):
  Direction    XX          YY          ZZ          XY          YZ          ZX
  --------------------------------------------------------------------------------------
  Alpha Z   661.41425   661.41425   661.41425
  Ewald   -3563.95892 -3604.20219 -3604.20219     0.00000    22.39882    -0.00000
  Hartree   880.87288   838.02043   838.02043     0.00000    23.20305    -0.00000
  E(xc)    -718.00905  -718.13895  -718.13895    -0.00000    -0.01344     0.00000
  Local    -598.40256  -516.00936  -516.00936     0.00000   -45.05179    -0.00000
  n-local   290.76161   290.42953   290.42768    -0.60125     0.22440    -0.59750
  augment   471.07291   471.28075   471.28075     0.00000    -0.03507     0.00000
  Kinetic  2575.74285  2577.26752  2577.26706     1.49019    -0.72924     1.48920
  Fock        0.00000     0.00000     0.00000     0.00000     0.00000     0.00000
  -------------------------------------------------------------------------------------
  Total      -0.50603     0.06082     0.06082     0.00000    -0.00331     0.00000
  in kB      -3.52127     0.42323     0.42323     0.00000    -0.02305     0.00000
  external pressure =       -0.89 kB  Pullay stress =        0.00 kB


 VOLUME and BASIS-vectors are now :
 -----------------------------------------------------------------------------
  energy-cutoff  :      520.00
  volume of cell :      230.24
      direct lattice vectors                 reciprocal lattice vectors
     3.865909454  0.000000000  0.000000000     0.258671345  0.000000000  0.000000000
     0.000000000  3.856792731  3.856792731     0.000000000  0.129641398  0.129641398
     0.000000000 -7.721100363  7.721100363     0.000000000 -0.064757609  0.064757609

  length of vectors
     3.865909454  5.454328588 10.919284850     0.258671345  0.183340623  0.091581089


 FORCES acting on ions
    electron-ion (+dipol)            ewald-force                    non-local-force                 convergence-correction
 -----------------------------------------------------------------------------------------------
   -.870E-14 0.181E-12 -.202E-12   0.973E-14 -.142E-13 0.142E-13   0.000E+00 -.542E-19 0.108E-18   -.147E-14 -.174E-12 0.149E-12
   -.631E-15 0.832E+02 -.832E+02   -.194E-13 -.825E+02 0.825E+02   0.000E+00 -.519E+00 0.519E+00   -.270E-14 -.706E-01 0.706E-01
   -.913E-14 0.133E-12 -.146E-12   0.931E-14 -.426E-13 0.568E-13   0.000E+00 -.108E-18 -.542E-19   -.603E-15 0.182E-12 -.177E-12
   -.109E-13 -.832E+02 0.832E+02   0.559E-14 0.825E+02 -.825E+02   0.000E+00 0.519E+00 -.519E+00   -.300E-14 0.706E-01 -.706E-01
   0.652E-13 -.172E-11 0.173E-11   0.114E-13 -.284E-13 -.213E-13   0.000E+00 0.169E-20 0.762E-20   0.129E-13 0.150E-12 -.161E-12
   0.316E-12 -.488E+02 0.488E+02   -.323E-14 0.486E+02 -.486E+02   0.000E+00 0.181E+00 -.181E+00   0.583E-13 0.764E-01 -.764E-01
   0.311E-12 -.930E-12 0.986E-12   -.297E-14 -.284E-13 -.284E-13   0.000E+00 0.678E-20 0.678E-20   0.570E-13 -.151E-12 0.178E-12
   0.310E-12 0.488E+02 -.488E+02   -.121E-13 -.486E+02 0.486E+02   0.000E+00 -.181E+00 0.181E+00   0.569E-13 -.764E-01 0.764E-01
   0.121E-12 0.135E+02 -.624E+02   0.212E-13 -.131E+02 0.579E+02   0.867E-18 -.381E+00 0.463E+01   0.298E-13 -.268E-01 -.153E-01
   0.119E-12 0.147E+02 -.370E+02   -.112E-13 -.143E+02 0.386E+02   0.108E-18 -.393E+00 -.167E+01   0.340E-13 -.285E-01 0.585E-01
   0.117E-12 -.147E+02 0.370E+02   0.123E-13 0.143E+02 -.386E+02   -.108E-18 0.393E+00 0.167E+01   0.378E-13 0.285E-01 -.585E-01
   0.118E-12 -.135E+02 0.624E+02   -.664E-14 0.131E+02 -.579E+02   -.173E-17 0.381E+00 -.463E+01   0.345E-13 0.268E-01 0.153E-01
   0.114E-12 -.624E+02 0.135E+02   -.141E-14 0.579E+02 -.131E+02   0.173E-17 0.463E+01 -.381E+00   0.418E-13 -.153E-01 -.268E-01
   0.128E-12 0.624E+02 -.135E+02   0.777E-14 -.579E+02 0.131E+02   -.867E-18 -.463E+01 0.381E+00   0.311E-13 0.153E-01 0.268E-01
   0.123E-12 0.370E+02 -.147E+02   0.886E-14 -.386E+02 0.143E+02   -.108E-18 0.167E+01 0.393E+00   0.275E-13 -.585E-01 0.285E-01
   0.124E-12 -.370E+02 0.147E+02   -.130E-13 0.386E+02 -.143E+02   0.108E-18 -.167E+01 -.393E+00   0.451E-13 0.585E-01 -.285E-01
   -.254E-14 -.462E-12 0.465E-12   -.159E-13 0.000E+00 -.213E-13   0.000E+00 0.271E-19 0.407E-19   0.453E-14 0.141E-12 -.131E-12
   -.514E-14 0.291E+02 -.291E+02   -.188E-13 -.290E+02 0.290E+02   0.000E+00 0.600E-01 -.600E-01   -.856E-14 -.402E-01 0.402E-01
   -.550E-14 -.393E-13 0.455E-13   0.916E-14 -.284E-13 -.284E-13   0.000E+00 0.108E-18 0.813E-19   -.650E-14 -.791E-13 0.113E-12
   -.695E-14 -.291E+02 0.291E+02   0.359E-14 0.290E+02 -.290E+02   0.000E+00 -.600E-01 0.600E-01   -.431E-14 0.402E-01 -.402E-01
 -----------------------------------------------------------------------------------------------
   0.192E-11 -.104E-10 0.166E-10   -.558E-14 0.675E-13 -.639E-13   0.000E+00 0.666E-15 -.736E-15   0.444E-12 -.327E-13 0.890E-13
 
 
 POSITION                                       TOTAL-FORCE (eV/Angst)
 -----------------------------------------------------------------------------------
      0.00000     -0.00188      3.85867         0.000000     -0.000000      0.000000
      0.00000     -3.81126      3.81126         0.000000      0.128135     -0.128135
      0.00000     -3.86243      7.71922         0.000000     -0.000000      0.000000
      0.00000     -0.04929      0.04929         0.000000     -0.128135      0.128135
      1.93295     -5.79083      5.79083         0.000000     -0.000000      0.000000
      1.93295     -5.79269      9.64948         0.000000     -0.011362      0.011362
      1.93295     -1.93028      1.93028         0.000000     -0.000000      0.000000
      1.93295     -1.93217      5.78896         0.000000      0.011362     -0.011362
      1.93295     -1.94168      7.74929         0.000000     -0.015513      0.089554
      1.93295     -1.93777      3.83685         0.000000     -0.020188     -0.042488
      1.93295      1.93401      3.88049         0.000000      0.020188      0.042488
      1.93295     -5.78317      7.68915         0.000000      0.015513     -0.089554
      1.93295     -3.83236      9.63997         0.000000      0.089554     -0.015513
      1.93295     -3.89250      5.79848         0.000000     -0.089554      0.015513
      1.93295      0.01994      5.79456         0.000000      0.042488      0.020188
      1.93295     -0.02370      1.92278         0.000000     -0.042488     -0.020188
      0.00000     -5.79083      5.79083         0.000000     -0.000000      0.000000
      0.00000     -1.93616      5.79296         0.000000      0.042270     -0.042270
      0.00000     -1.93028      1.93028         0.000000     -0.000000      0.000000
      0.00000     -5.78869      9.64549         0.000000     -0.042270      0.042270
 -----------------------------------------------------------------------------------
    total drift:                                0.000000     -0.000000      0.000000


--------------------------------------------------------------------------------------------------------



  FREE ENERGIE OF THE ION-ELECTRON SYSTEM (eV)
  ---------------------------------------------------
  free  energy   TOTEN  =      -140.18712703 eV

  energy  without entropy=     -140.18712703  energy(sigma->0) =     -140.18712703
 


--------------------------------------------------------------------------------------------------------


    POTLOK:  cpu time    0.0553: real time    0.0554


--------------------------------------------------------------------------------------------------------


     LOOP+:  cpu time   58.2268: real time   58.5483
    4ORBIT:  cpu time    0.0000: real time    0.0000
 


 total charge     
 
# of ion       s       p       d       f       tot
--------------------------------------------------
    1        1.999   5.701   0.491   0.190   8.382
    2        2.000   5.701   0.497   0.193   8.391
    3        2.000   5.702   0.498   0.195   8.395
    4        2.001   5.701   0.497   0.193   8.392
    5        0.350   0.557   4.869   0.000   5.776
    6        0.410   0.606   8.311   0.000   9.327
    7        0.444   0.680   8.327   0.000   9.451
    8        0.410   0.606   8.311   0.000   9.327
    9        1.562   3.458   0.000   0.000   5.021
   10        1.563   3.435   0.000   0.000   4.998
   11        1.563   3.435   0.000   0.000   4.998
   12        1.562   3.458   0.000   0.000   5.021
   13        1.562   3.458   0.000   0.000   5.021
   14        1.562   3.458   0.000   0.000   5.021
   15        1.563   3.435   0.000   0.000   4.998
   16        1.563   3.435   0.000   0.000   4.998
   17        1.564   3.465   0.000   0.000   5.029
   18        1.560   3.439   0.000   0.000   4.999
   19        1.564   3.437   0.000   0.000   5.001
   20        1.560   3.439   0.000   0.000   4.999
--------------------------------------------------
tot         28.362  66.606  31.803   0.771 127.543

 


 magnetization (x)
 
# of ion       s       p       d       f       tot
--------------------------------------------------
    1        0.000  -0.001   0.005   0.002   0.006
    2        0.000   0.000   0.006   0.003   0.010
    3        0.000   0.001   0.009   0.004   0.014
    4        0.000   0.000   0.006   0.003   0.010
    5        0.022   0.027   3.285   0.000   3.334
    6        0.013   0.005   1.504   0.000   1.523
    7        0.019   0.014   1.253   0.000   1.286
    8        0.013   0.005   1.504   0.000   1.523
    9        0.005  -0.026   0.000   0.000  -0.022
   10        0.006  -0.092   0.000   0.000  -0.086
   11        0.006  -0.092   0.000   0.000  -0.086
   12        0.005  -0.026   0.000   0.000  -0.022
   13        0.005  -0.026   0.000   0.000  -0.022
   14        0.005  -0.026   0.000   0.000  -0.022
   15        0.006  -0.092   0.000   0.000  -0.086
   16        0.006  -0.092   0.000   0.000  -0.086
   17        0.002  -0.057   0.000   0.000  -0.054
   18        0.006  -0.069   0.000   0.000  -0.064
   19        0.007  -0.086   0.000   0.000  -0.079
   20        0.006  -0.069   0.000   0.000  -0.064
--------------------------------------------------
tot          0.130  -0.701   7.572   0.012   7.014

 
 BZINTS: Fermi energy:  7.516328;153.000000 electrons
         Band energy:-180.257531;  BLOECHL correction: -0.089714

 total amount of memory used by VASP MPI-rank0    60279. kBytes
=======================================================================

   base      :      30000. kBytes
   nonlr-proj:       4571. kBytes
   fftplans  :       1760. kBytes
   grid      :       4955. kBytes
   one-center:        196. kBytes
   wavefun   :      18797. kBytes
 
  
  
 General timing and accounting informations for this job:
 ========================================================
  
                  Total CPU time used (sec):       65.524
                            User time (sec):       62.639
                          System time (sec):        2.885
                         Elapsed time (sec):       66.023
  
                   Maximum memory used (kb):       98688.
                   Average memory used (kb):           0.
  
                          Minor page faults:        36576
                          Major page faults:            0
                 Voluntary context switches:         1823
