 vasp.5.4.4.18Apr17-6-g9f103f2a35 (build Oct 03 2018 13:58:34) complex          
  
 executed on             LinuxIFC date 2019.06.04  01:08:51
 running on   40 total cores
 distrk:  each k-point on   20 cores,    2 groups
 distr:  one band on NCORES_PER_BAND=  10 cores,    2 groups


--------------------------------------------------------------------------------------------------------


 INCAR:
 POTCAR:    PAW_PBE La 06Sep2000                  
 POTCAR:    PAW_PBE Mn 06Sep2000                  
 POTCAR:    PAW_PBE Ni 02Aug2007                  
 POTCAR:    PAW_PBE O 08Apr2002                   

 ----------------------------------------------------------------------------- 
|                                                                             |
|           W    W    AA    RRRRR   N    N  II  N    N   GGGG   !!!           |
|           W    W   A  A   R    R  NN   N  II  NN   N  G    G  !!!           |
|           W    W  A    A  R    R  N N  N  II  N N  N  G       !!!           |
|           W WW W  AAAAAA  RRRRR   N  N N  II  N  N N  G  GGG   !            |
|           WW  WW  A    A  R   R   N   NN  II  N   NN  G    G                |
|           W    W  A    A  R    R  N    N  II  N    N   GGGG   !!!           |
|                                                                             |
|      You have enabled k-point parallelism (KPAR>1).                         |
|      This developmental code was originally  written by Paul Kent at ORNL,  |
|      and carefully double checked in Vienna.                                |
|      GW as well as linear response parallelism added by Martijn Marsman     |
|      and Georg Kresse.                                                      |
|      Carefully verify results versus KPAR=1.                                |
|      Report problems to Paul Kent and Vienna.                               |
|                                                                             |
 ----------------------------------------------------------------------------- 

 POTCAR:    PAW_PBE La 06Sep2000                  
   VRHFIN =La : [core=Kr4d]                                                     
   LEXCH  = PE                                                                  
   EATOM  =   865.9763 eV,   63.6475 Ry                                         
                                                                                
   TITEL  = PAW_PBE La 06Sep2000                                                
   LULTRA =        F    use ultrasoft PP ?                                      
   IUNSCR =        1    unscreen: 0-lin 1-nonlin 2-no                           
   RPACOR =    2.300    partial core radius                                     
   POMASS =  138.900; ZVAL   =   11.000    mass and valenz                      
   RCORE  =    2.800    outmost cutoff radius                                   
   RWIGS  =    2.900; RWIGS  =    1.535    wigner-seitz radius (au A)           
   ENMAX  =  219.292; ENMIN  =  164.469 eV                                      
   RCLOC  =    1.601    cutoff for local pot                                    
   LCOR   =        T    correct aug charges                                     
   LPAW   =        T    paw PP                                                  
   EAUG   =  583.575                                                            
   DEXC   =    0.000                                                            
   RMAX   =    2.853    core radius for proj-oper                               
   RAUG   =    1.300    factor for augmentation sphere                          
   RDEP   =    2.802    radius for radial grids                                 
   RDEPT  =    2.156    core radius for aug-charge                              
                                                                                
   Atomic configuration                                                         
   14 entries                                                                   
     n  l   j            E        occ.                                          
     1  0  0.50    -38741.0879   2.0000                                         
     2  0  0.50     -6166.6801   2.0000                                         
     2  1  1.50     -5526.1593   6.0000                                         
     3  0  0.50     -1319.0200   2.0000                                         
     3  1  1.50     -1114.5963   6.0000                                         
     3  2  2.50      -821.1793  10.0000                                         
     4  0  0.50      -266.3851   2.0000                                         
     4  1  1.50      -199.9276   6.0000                                         
     4  2  2.50      -103.8239  10.0000                                         
     5  0  0.50       -38.9172   2.0000                                         
     6  0  0.50        -3.6792   2.0000                                         
     5  1  1.50       -22.3948   6.0000                                         
     5  2  2.50        -3.0911   0.9999                                         
     4  3  2.50        -4.3603   0.0001                                         
   Description                                                                  
     l       E           TYP  RCUT    TYP  RCUT                                 
     0    -38.9171645     23  2.800                                             
     0     -3.6792381     23  2.800                                             
     1    -22.3948300     23  2.500                                             
     1     27.2116520     23  2.500                                             
     2     -3.0910934     23  2.500                                             
     2      1.0119135     23  2.500                                             
     3     -4.3602911     23  2.800                                             
     3     -5.7208737     23  2.800                                             
  local pseudopotential read in
  partial core-charges read in
  partial kinetic energy density read in
  atomic valenz-charges read in
  non local Contribution for L=           0  read in
    real space projection operators read in
  non local Contribution for L=           0  read in
    real space projection operators read in
  non local Contribution for L=           1  read in
    real space projection operators read in
  non local Contribution for L=           1  read in
    real space projection operators read in
  non local Contribution for L=           2  read in
    real space projection operators read in
  non local Contribution for L=           2  read in
    real space projection operators read in
  non local Contribution for L=           3  read in
    real space projection operators read in
  non local Contribution for L=           3  read in
    real space projection operators read in
    PAW grid and wavefunctions read in
 
   number of l-projection  operators is LMAX  =           8
   number of lm-projection operators is LMMAX =          32
 
 POTCAR:    PAW_PBE Mn 06Sep2000                  
   VRHFIN =Mn: d6 s1                                                            
   LEXCH  = PE                                                                  
   EATOM  =   416.7541 eV,   30.6306 Ry                                         
                                                                                
   TITEL  = PAW_PBE Mn 06Sep2000                                                
   LULTRA =        F    use ultrasoft PP ?                                      
   IUNSCR =        1    unscreen: 0-lin 1-nonlin 2-no                           
   RPACOR =    2.000    partial core radius                                     
   POMASS =   54.938; ZVAL   =    7.000    mass and valenz                      
   RCORE  =    2.300    outmost cutoff radius                                   
   RWIGS  =    2.500; RWIGS  =    1.323    wigner-seitz radius (au A)           
   ENMAX  =  269.864; ENMIN  =  202.398 eV                                      
   RCLOC  =    1.725    cutoff for local pot                                    
   LCOR   =        T    correct aug charges                                     
   LPAW   =        T    paw PP                                                  
   EAUG   =  500.711                                                            
   DEXC   =    0.000                                                            
   RMAX   =    2.343    core radius for proj-oper                               
   RAUG   =    1.300    factor for augmentation sphere                          
   RDEP   =    2.338    radius for radial grids                                 
   RDEPT  =    1.911    core radius for aug-charge                              
                                                                                
   Atomic configuration                                                         
    9 entries                                                                   
     n  l   j            E        occ.                                          
     1  0  0.50     -6424.8288   2.0000                                         
     2  0  0.50      -739.1154   2.0000                                         
     2  1  1.50      -625.3949   6.0000                                         
     3  0  0.50       -81.6100   2.0000                                         
     3  1  1.50       -50.4667   6.0000                                         
     3  2  2.50        -3.3745   6.0000                                         
     4  0  0.50        -4.1331   1.0000                                         
     4  1  0.50        -4.0817   0.0000                                         
     4  3  2.50        -1.3606   0.0000                                         
   Description                                                                  
     l       E           TYP  RCUT    TYP  RCUT                                 
     2     -3.3744664     23  2.300                                             
     2     -4.7350490     23  2.300                                             
     0     -4.1331408     23  2.300                                             
     0      7.6656614     23  2.300                                             
     1     -2.7211652     23  2.300                                             
     1     20.4087390     23  2.300                                             
  local pseudopotential read in
  partial core-charges read in
  partial kinetic energy density read in
  atomic valenz-charges read in
  non local Contribution for L=           2  read in
    real space projection operators read in
  non local Contribution for L=           2  read in
    real space projection operators read in
  non local Contribution for L=           0  read in
    real space projection operators read in
  non local Contribution for L=           0  read in
    real space projection operators read in
  non local Contribution for L=           1  read in
    real space projection operators read in
  non local Contribution for L=           1  read in
    real space projection operators read in
    PAW grid and wavefunctions read in
 
   number of l-projection  operators is LMAX  =           6
   number of lm-projection operators is LMMAX =          18
 
 POTCAR:    PAW_PBE Ni 02Aug2007                  
   VRHFIN =Ni:                                                                  
   LEXCH  = PE                                                                  
   EATOM  =  1077.6739 eV,   79.2068 Ry                                         
                                                                                
   TITEL  = PAW_PBE Ni 02Aug2007                                                
   LULTRA =        F    use ultrasoft PP ?                                      
   IUNSCR =        1    unscreen: 0-lin 1-nonlin 2-no                           
   RPACOR =    2.000    partial core radius                                     
   POMASS =   58.690; ZVAL   =   10.000    mass and valenz                      
   RCORE  =    2.300    outmost cutoff radius                                   
   RWIGS  =    2.430; RWIGS  =    1.286    wigner-seitz radius (au A)           
   ENMAX  =  269.532; ENMIN  =  202.149 eV                                      
   RCLOC  =    1.201    cutoff for local pot                                    
   LCOR   =        T    correct aug charges                                     
   LPAW   =        T    paw PP                                                  
   EAUG   =  544.565                                                            
   DEXC   =    0.000                                                            
   RMAX   =    2.357    core radius for proj-oper                               
   RAUG   =    1.300    factor for augmentation sphere                          
   RDEP   =    2.390    radius for radial grids                                 
   RDEPT  =    1.838    core radius for aug-charge                              
                                                                                
   Atomic configuration                                                         
    9 entries                                                                   
     n  l   j            E        occ.                                          
     1  0  0.50     -8206.4253   2.0000                                         
     2  0  0.50      -976.1748   2.0000                                         
     2  1  1.50      -839.0571   6.0000                                         
     3  0  0.50      -105.9991   2.0000                                         
     3  1  1.50       -66.4603   6.0000                                         
     3  2  2.50        -4.6458   9.0000                                         
     4  0  0.50        -4.4926   1.0000                                         
     4  1  1.50        -4.0817   0.0000                                         
     4  3  2.50        -1.3606   0.0000                                         
   Description                                                                  
     l       E           TYP  RCUT    TYP  RCUT                                 
     2     -4.6457903     23  2.300                                             
     2     -6.0063729     23  2.300                                             
     0     -4.4925590     23  2.300                                             
     0      5.0102601     23  2.300                                             
     1     -2.7211652     23  2.300                                             
     1     16.5183231     23  2.300                                             
  local pseudopotential read in
  partial core-charges read in
  partial kinetic energy density read in
  atomic valenz-charges read in
  non local Contribution for L=           2  read in
    real space projection operators read in
  non local Contribution for L=           2  read in
    real space projection operators read in
  non local Contribution for L=           0  read in
    real space projection operators read in
  non local Contribution for L=           0  read in
    real space projection operators read in
  non local Contribution for L=           1  read in
    real space projection operators read in
  non local Contribution for L=           1  read in
    real space projection operators read in
    PAW grid and wavefunctions read in
 
   number of l-projection  operators is LMAX  =           6
   number of lm-projection operators is LMMAX =          18
 
 POTCAR:    PAW_PBE O 08Apr2002                   
   VRHFIN =O: s2p4                                                              
   LEXCH  = PE                                                                  
   EATOM  =   432.3788 eV,   31.7789 Ry                                         
                                                                                
   TITEL  = PAW_PBE O 08Apr2002                                                 
   LULTRA =        F    use ultrasoft PP ?                                      
   IUNSCR =        1    unscreen: 0-lin 1-nonlin 2-no                           
   RPACOR =    1.200    partial core radius                                     
   POMASS =   16.000; ZVAL   =    6.000    mass and valenz                      
   RCORE  =    1.520    outmost cutoff radius                                   
   RWIGS  =    1.550; RWIGS  =    0.820    wigner-seitz radius (au A)           
   ENMAX  =  400.000; ENMIN  =  300.000 eV                                      
   ICORE  =        2    local potential                                         
   LCOR   =        T    correct aug charges                                     
   LPAW   =        T    paw PP                                                  
   EAUG   =  605.392                                                            
   DEXC   =    0.000                                                            
   RMAX   =    1.553    core radius for proj-oper                               
   RAUG   =    1.300    factor for augmentation sphere                          
   RDEP   =    1.550    radius for radial grids                                 
   RDEPT  =    1.329    core radius for aug-charge                              
                                                                                
   Atomic configuration                                                         
    4 entries                                                                   
     n  l   j            E        occ.                                          
     1  0  0.50      -514.6923   2.0000                                         
     2  0  0.50       -23.9615   2.0000                                         
     2  1  0.50        -9.0305   4.0000                                         
     3  2  1.50        -9.5241   0.0000                                         
   Description                                                                  
     l       E           TYP  RCUT    TYP  RCUT                                 
     0    -23.9615318     23  1.200                                             
     0     -9.5240782     23  1.200                                             
     1     -9.0304911     23  1.520                                             
     1      8.1634956     23  1.520                                             
     2     -9.5240782      7  1.500                                             
  local pseudopotential read in
  partial core-charges read in
  partial kinetic energy density read in
  kinetic energy density of atom read in
  atomic valenz-charges read in
  non local Contribution for L=           0  read in
    real space projection operators read in
  non local Contribution for L=           0  read in
    real space projection operators read in
  non local Contribution for L=           1  read in
    real space projection operators read in
  non local Contribution for L=           1  read in
    real space projection operators read in
    PAW grid and wavefunctions read in
 
   number of l-projection  operators is LMAX  =           4
   number of lm-projection operators is LMMAX =           8
 
 Optimization of the real space projectors (new method)

 maximal supplied QI-value         = 13.42
 optimisation between [QCUT,QGAM] = [ 11.67, 23.35] = [ 38.16,152.62] Ry 
 Optimized for a Real-space Cutoff    1.63 Angstroem

   l    n(q)    QCUT    max X(q) W(low)/X(q) W(high)/X(q)  e(spline) 
   0     11    11.673    13.882    0.27E-04    0.79E-05    0.11E-06
   0     11    11.673    12.184    0.39E-04    0.13E-04    0.19E-06
   1     11    11.673     4.523    0.73E-05    0.76E-05    0.12E-06
   1     11    11.673     4.424    0.87E-05    0.13E-04    0.19E-06
   2     10    11.673    52.481    0.65E-04    0.36E-04    0.18E-06
   2     10    11.673    38.501    0.61E-04    0.33E-04    0.17E-06
   3     10    11.673    65.631    0.17E-03    0.14E-03    0.37E-06
   3     10    11.673    56.854    0.17E-03    0.14E-03    0.37E-06
 Optimization of the real space projectors (new method)

 maximal supplied QI-value         = 16.25
 optimisation between [QCUT,QGAM] = [ 11.54, 23.24] = [ 37.28,151.24] Ry 
 Optimized for a Real-space Cutoff    1.53 Angstroem

   l    n(q)    QCUT    max X(q) W(low)/X(q) W(high)/X(q)  e(spline) 
   2     10    11.539   110.144    0.12E-03    0.13E-03    0.25E-06
   2     10    11.539   103.200    0.12E-03    0.13E-03    0.25E-06
   0     11    11.539    68.437    0.46E-04    0.21E-04    0.32E-06
   0     11    11.539    33.971    0.37E-04    0.19E-04    0.29E-06
   1     10    11.539    17.065    0.51E-04    0.22E-04    0.13E-06
   1     10    11.539    12.540    0.41E-04    0.18E-04    0.11E-06
 Optimization of the real space projectors (new method)

 maximal supplied QI-value         = 16.25
 optimisation between [QCUT,QGAM] = [ 11.54, 23.24] = [ 37.28,151.24] Ry 
 Optimized for a Real-space Cutoff    1.45 Angstroem

   l    n(q)    QCUT    max X(q) W(low)/X(q) W(high)/X(q)  e(spline) 
   2      9    11.539    60.317    0.19E-03    0.47E-04    0.16E-06
   2      9    11.539    55.921    0.19E-03    0.48E-04    0.16E-06
   0     10    11.539    51.690    0.80E-04    0.50E-04    0.24E-06
   0     10    11.539    30.015    0.73E-04    0.45E-04    0.22E-06
   1     10    11.539    18.849    0.87E-04    0.16E-03    0.71E-07
   1     10    11.539    14.624    0.73E-04    0.13E-03    0.64E-07
 Optimization of the real space projectors (new method)

 maximal supplied QI-value         = 24.76
 optimisation between [QCUT,QGAM] = [ 11.64, 23.27] = [ 37.91,151.63] Ry 
 Optimized for a Real-space Cutoff    1.14 Angstroem

   l    n(q)    QCUT    max X(q) W(low)/X(q) W(high)/X(q)  e(spline) 
   0      8    11.635    20.381    0.10E-03    0.33E-03    0.24E-06
   0      8    11.635    15.268    0.11E-03    0.35E-03    0.26E-06
   1      7    11.635     5.964    0.24E-03    0.31E-03    0.30E-06
   1      7    11.635     5.382    0.22E-03    0.25E-03    0.26E-06
  PAW_PBE La 06Sep2000                  :
 energy of atom  1       EATOM= -865.9763
 kinetic energy error for atom=    0.0009 (will be added to EATOM!!)
  PAW_PBE Mn 06Sep2000                  :
 energy of atom  2       EATOM= -416.7541
 kinetic energy error for atom=    0.0024 (will be added to EATOM!!)
  PAW_PBE Ni 02Aug2007                  :
 energy of atom  3       EATOM=-1077.6739
 kinetic energy error for atom=    0.0030 (will be added to EATOM!!)
  PAW_PBE O 08Apr2002                   :
 energy of atom  4       EATOM= -432.3788
 kinetic energy error for atom=    0.0208 (will be added to EATOM!!)
 
 
 POSCAR: SCEL6_2_1_3_0_1_1/2                     
  positions in direct lattice
  velocities in cartesian coordinates
 exchange correlation table for  LEXCH =        8
   RHO(1)=    0.500       N(1)  =     2000
   RHO(2)=  100.500       N(2)  =     4000
 


--------------------------------------------------------------------------------------------------------


 ion  position               nearest neighbor table
   1  0.165  0.165  0.329-  24 2.72  27 2.72  30 2.72  21 2.72  14 2.76  14 2.76  17 2.76  17 2.76
                            23 2.80  29 2.80  26 2.80  20 2.80  12 3.35  12 3.35   9 3.36   9 3.36
   2  0.335  0.335  0.671-  19 2.72  28 2.72  25 2.72  22 2.72  13 2.76  13 2.76  16 2.76  16 2.76
                            20 2.80  26 2.80  29 2.80  23 2.80  11 3.35  11 3.35   8 3.36   8 3.36
   3  0.500  0.500  0.000-  15 2.76  18 2.76  15 2.76  18 2.76  21 2.77  19 2.77  28 2.77  27 2.77
                            30 2.77  25 2.77  24 2.77  22 2.77   8 3.37   9 3.37   8 3.37   9 3.37
   4  0.665  0.665  0.329-  21 2.72  27 2.72  30 2.72  24 2.72  14 2.76  14 2.76  17 2.76  17 2.76
                            20 2.80  29 2.80  26 2.80  23 2.80  12 3.35  12 3.35   9 3.36   9 3.36
   5  0.835  0.835  0.671-  22 2.72  28 2.72  25 2.72  19 2.72  13 2.76  13 2.76  16 2.76  16 2.76
                            23 2.80  26 2.80  29 2.80  20 2.80  11 3.35  11 3.35   8 3.36   8 3.36
   6  0.000  0.000  0.000-  15 2.76  18 2.76  15 2.76  18 2.76  24 2.77  22 2.77  28 2.77  27 2.77
                            30 2.77  25 2.77  21 2.77  19 2.77   8 3.37   9 3.37   8 3.37   9 3.37
   7  0.750  0.250  0.500-  20 1.96  23 1.96  26 1.96  29 1.96  13 2.00  14 2.00   2 3.41   5 3.41
                             4 3.41   1 3.41   1 3.41   2 3.41   4 3.41   5 3.41
   8  0.917  0.417  0.835-  28 1.91  22 1.91  19 1.91  25 1.91  13 1.93  18 1.93   2 3.36   5 3.36
                             5 3.36   2 3.36   3 3.37   6 3.37   3 3.37   6 3.37
   9  0.583  0.083  0.165-  27 1.91  24 1.91  21 1.91  30 1.91  14 1.93  15 1.93   1 3.36   4 3.36
                             1 3.36   4 3.36   3 3.37   6 3.37   3 3.37   6 3.37
  10  0.250  0.750  0.500-  16 1.93  17 1.93  20 1.94  23 1.94  26 1.94  29 1.94   5 3.41   2 3.41
                             1 3.41   4 3.41   1 3.41   2 3.41   4 3.41   5 3.41
  11  0.417  0.917  0.833-  15 1.97  16 1.98  25 1.99  22 1.99  19 1.99  28 1.99   2 3.35   5 3.35
                             2 3.35   5 3.35   6 3.38   3 3.38   3 3.38   6 3.38
  12  0.083  0.583  0.167-  18 1.97  17 1.98  30 1.99  24 1.99  21 1.99  27 1.99   1 3.35   4 3.35
                             4 3.35   1 3.35   6 3.38   3 3.38   3 3.38   6 3.38
  13  0.835  0.335  0.670-   8 1.93   7 2.00   2 2.76   5 2.76   2 2.76   5 2.76
  14  0.665  0.165  0.330-   9 1.93   7 2.00   4 2.76   1 2.76   1 2.76   4 2.76
  15  0.501  0.001  0.001-   9 1.93  11 1.97   3 2.76   6 2.76   3 2.76   6 2.76
  16  0.332  0.832  0.664-  10 1.93  11 1.98   2 2.76   5 2.76   5 2.76   2 2.76
  17  0.168  0.668  0.336-  10 1.93  12 1.98   1 2.76   4 2.76   1 2.76   4 2.76
  18  0.999  0.499  0.999-   8 1.93  12 1.97   3 2.76   6 2.76   3 2.76   6 2.76
  19  0.162  0.171  0.833-   8 1.91  11 1.99   2 2.72   5 2.72   3 2.77   6 2.77
  20  0.001  0.999  0.500-  10 1.94   7 1.96   2 2.80   4 2.80   1 2.80   5 2.80
  21  0.829  0.838  0.167-   9 1.91  12 1.99   4 2.72   1 2.72   3 2.77   6 2.77
  22  0.671  0.662  0.833-   8 1.91  11 1.99   5 2.72   2 2.72   6 2.77   3 2.77
  23  0.499  0.501  0.500-  10 1.94   7 1.96   1 2.80   5 2.80   4 2.80   2 2.80
  24  0.338  0.329  0.167-   9 1.91  12 1.99   1 2.72   4 2.72   6 2.77   3 2.77
  25  0.671  0.171  0.833-   8 1.91  11 1.99   2 2.72   5 2.72   3 2.77   6 2.77
  26  0.499  0.999  0.500-  10 1.94   7 1.96   2 2.80   5 2.80   4 2.80   1 2.80
  27  0.338  0.838  0.167-   9 1.91  12 1.99   1 2.72   4 2.72   3 2.77   6 2.77
  28  0.162  0.662  0.833-   8 1.91  11 1.99   2 2.72   5 2.72   3 2.77   6 2.77
  29  0.001  0.501  0.500-  10 1.94   7 1.96   1 2.80   4 2.80   2 2.80   5 2.80
  30  0.829  0.329  0.167-   9 1.91  12 1.99   1 2.72   4 2.72   3 2.77   6 2.77
 
  LATTYP: Found a body centered tetragonal cell.
 ALAT       =     5.5136214754
 C/A-ratio  =     4.2567586390
  
  Lattice vectors:
  
 A1 = (   0.0000000000,  -3.8987191342,  11.7350779237)
 A2 = (   0.0000000000,   3.8987191342,  11.7350779237)
 A3 = (  -3.8987191342,   0.0000000000, -11.7350779237)


Analysis of symmetry for initial positions (statically):
=====================================================================
 Subroutine PRICEL returns:
 Original cell was already a primitive cell.
 

 Routine SETGRP: Setting up the symmetry group for a 
 body centered tetragonal supercell.


 Subroutine GETGRP returns: Found 16 space group operations
 (whereof  8 operations were pure point group operations)
 out of a pool of 16 trial point group operations.


The static configuration has the point symmetry D_2d.
 The point group associated with its full space group is D_4h.


Analysis of symmetry for dynamics (positions and initial velocities):
=====================================================================
 Subroutine PRICEL returns:
 Original cell was already a primitive cell.
 

 Routine SETGRP: Setting up the symmetry group for a 
 body centered tetragonal supercell.


 Subroutine GETGRP returns: Found 16 space group operations
 (whereof  8 operations were pure point group operations)
 out of a pool of 16 trial point group operations.


The dynamic configuration has the point symmetry D_2d.
 The point group associated with its full space group is D_4h.


Analysis of structural, dynamic, and magnetic symmetry:
=====================================================================
 Subroutine PRICEL returns:
 Original cell was already a primitive cell.
 

 Routine SETGRP: Setting up the symmetry group for a 
 body centered tetragonal supercell.


 Subroutine GETGRP returns: Found 16 space group operations
 (whereof  8 operations were pure point group operations)
 out of a pool of 16 trial point group operations.


The magnetic configuration has the point symmetry D_2d.
 The point group associated with its full space group is D_4h.


 Subroutine INISYM returns: Found 16 space group operations
 (whereof  8 operations are pure point group operations),
 and found     1 'primitive' translations

 
 
 KPOINTS: Automatic mesh                          

Automatic generation of k-mesh.
 generate k-points for:    4    4    2
Space group operators:
 irot       det(A)        alpha          n_x          n_y          n_z        tau_x        tau_y        tau_z
    1     1.000000     0.000000     1.000000     0.000000     0.000000     0.000000     0.000000     0.000000
    2    -1.000000    90.000000     0.000000     0.000000    -1.000000     0.000000     0.000000     0.000000
    3     1.000000   180.000000     0.000000     0.000000     1.000000     0.000000     0.000000     0.000000
    4    -1.000000    90.000000     0.000000     0.000000     1.000000     0.000000     0.000000     0.000000
    5    -1.000000   180.000000     0.707107     0.707107     0.000000     0.000000     0.000000     0.000000
    6     1.000000   180.000000     1.000000     0.000000     0.000000     0.000000     0.000000     0.000000
    7    -1.000000   180.000000     0.707107    -0.707107     0.000000     0.000000     0.000000     0.000000
    8     1.000000   180.000000     0.000000     1.000000     0.000000     0.000000     0.000000     0.000000
    9    -1.000000     0.000000     1.000000     0.000000     0.000000     0.500000     0.500000     1.000000
   10     1.000000    90.000000     0.000000     0.000000    -1.000000     0.500000     0.500000     1.000000
   11    -1.000000   180.000000     0.000000     0.000000     1.000000     0.500000     0.500000     1.000000
   12     1.000000    90.000000     0.000000     0.000000     1.000000     0.500000     0.500000     1.000000
   13     1.000000   180.000000     0.707107     0.707107     0.000000     0.500000     0.500000     1.000000
   14    -1.000000   180.000000     1.000000     0.000000     0.000000     0.500000     0.500000     1.000000
   15     1.000000   180.000000     0.707107    -0.707107     0.000000     0.500000     0.500000     1.000000
   16    -1.000000   180.000000     0.000000     1.000000     0.000000     0.500000     0.500000     1.000000
 
 Subroutine IBZKPT returns following result:
 ===========================================
 
 Found     10 irreducible k-points:
 
 Following reciprocal coordinates:
            Coordinates               Weight
  0.000000  0.000000  0.000000      1.000000
  0.250000  0.000000  0.000000      4.000000
  0.500000  0.000000  0.000000      4.000000
  0.250000  0.250000  0.000000      4.000000
  0.500000  0.250000  0.000000      8.000000
 -0.250000  0.250000  0.000000      2.000000
  0.500000  0.500000  0.000000      2.000000
  0.000000  0.000000  0.500000      1.000000
  0.250000  0.000000  0.500000      4.000000
 -0.250000  0.250000  0.500000      2.000000
 
 Following cartesian coordinates:
            Coordinates               Weight
  0.000000  0.000000  0.000000      1.000000
  0.032062 -0.032062  0.010652      4.000000
  0.064124 -0.064124  0.021304      4.000000
  0.064124  0.000000  0.021304      4.000000
  0.096185 -0.032062  0.031955      8.000000
  0.000000  0.064124  0.000000      2.000000
  0.128247  0.000000  0.042607      2.000000
  0.000000  0.000000  0.042607      1.000000
  0.032062 -0.032062  0.053259      4.000000
  0.000000  0.064124  0.042607      2.000000
 
 TETIRR: Found     41 inequivalent tetrahedra from      192


--------------------------------------------------------------------------------------------------------




 Dimension of arrays:
   k-points           NKPTS =     10   k-points in BZ     NKDIM =     10   number of bands    NBANDS=    144
   number of dos      NEDOS =    301   number of ions     NIONS =     30
   non local maximal  LDIM  =      8   non local SUM 2l+1 LMDIM =     32
   total plane-waves  NPLWV = 169344
   max r-space proj   IRMAX =   8617   max aug-charges    IRDMAX=  25001
   dimension x,y,z NGX =    42 NGY =   42 NGZ =   96
   dimension x,y,z NGXF=    84 NGYF=   84 NGZF=  192
   support grid    NGXF=    84 NGYF=   84 NGZF=  192
   ions per type =               6   4   2  18
   NGX,Y,Z   is equivalent  to a cutoff of  12.66, 12.66, 12.91 a.u.
   NGXF,Y,Z  is equivalent  to a cutoff of  25.33, 25.33, 25.81 a.u.

 SYSTEM =  final                                   
 POSCAR =  SCEL6_2_1_3_0_1_1/2                     

 Startparameter for this run:
   NWRITE =      2    write-flag & timer
   PREC   = accura    normal or accurate (medium, high low for compatibility)
   ISTART =      0    job   : 0-new  1-cont  2-samecut
   ICHARG =      1    charge: 1-file 2-atom 10-const
   ISPIN  =      2    spin polarized calculation?
   LNONCOLLINEAR =      F non collinear calculations
   LSORBIT =      F    spin-orbit coupling
   INIWAV =      1    electr: 0-lowe 1-rand  2-diag
   LASPH  =      F    aspherical Exc in radial PAW
   METAGGA=      F    non-selfconsistent MetaGGA calc.

 Electronic Relaxation 1
   ENCUT  =  520.0 eV  38.22 Ry    6.18 a.u.  10.25 10.25 22.99*2*pi/ulx,y,z
   ENINI  =  520.0     initial cutoff
   ENAUG  =  605.4 eV  augmentation charge cutoff
   NELM   =    100;   NELMIN=  2; NELMDL= -5     # of ELM steps 
   EDIFF  = 0.1E-02   stopping-criterion for ELM
   LREAL  =      T    real-space projection
   NLSPLINE    = F    spline interpolate recip. space projectors
   LCOMPAT=      F    compatible to vasp.4.4
   GGA_COMPAT  = T    GGA compatible to vasp.4.4-vasp.4.6
   LMAXPAW     = -100 max onsite density
   LMAXMIX     =    6 max onsite mixed and CHGCAR
   VOSKOWN=      0    Vosko Wilk Nusair interpolation
   ROPT   =   -0.00025  -0.00025  -0.00025  -0.00025
 Ionic relaxation
   EDIFFG = 0.1E-01   stopping-criterion for IOM
   NSW    =      0    number of steps for IOM
   NBLOCK =      1;   KBLOCK =      1    inner block; outer block 
   IBRION =     -1    ionic relax: 0-MD 1-quasi-New 2-CG
   NFREE  =      0    steps in history (QN), initial steepest desc. (CG)
   ISIF   =      2    stress and relaxation
   IWAVPR =     10    prediction:  0-non 1-charg 2-wave 3-comb
   ISYM   =      2    0-nonsym 1-usesym 2-fastsym
   LCORR  =      T    Harris-Foulkes like correction to forces

   POTIM  = 0.5000    time-step for ionic-motion
   TEIN   =    0.0    initial temperature
   TEBEG  =    0.0;   TEEND  =   0.0 temperature during run
   SMASS  =  -3.00    Nose mass-parameter (am)
   estimated Nose-frequenzy (Omega)   =  0.10E-29 period in steps =****** mass=  -0.695E-27a.u.
   SCALEE = 1.0000    scale energy and forces
   NPACO  =    256;   APACO  = 16.0  distance and # of slots for P.C.
   PSTRESS=    0.0 pullay stress

  Mass of Ions in am
   POMASS = 138.90 54.94 58.69 16.00
  Ionic Valenz
   ZVAL   =  11.00  7.00 10.00  6.00
  Atomic Wigner-Seitz radii
   RWIGS  =  -1.00 -1.00 -1.00 -1.00
  virtual crystal weights 
   VCA    =   1.00  1.00  1.00  1.00
   NELECT =     222.0000    total number of electrons
   NUPDOWN=      -1.0000    fix difference up-down

 DOS related values:
   EMIN   =  10.00;   EMAX   =-10.00  energy-range for DOS
   EFERMI =   0.00
   ISMEAR =    -5;   SIGMA  =   0.05  broadening in eV -4-tet -1-fermi 0-gaus

 Electronic relaxation 2 (details)
   IALGO  =     68    algorithm
   LDIAG  =      T    sub-space diagonalisation (order eigenvalues)
   LSUBROT=      F    optimize rotation matrix (better conditioning)
   TURBO    =      0    0=normal 1=particle mesh
   IRESTART =      0    0=no restart 2=restart with 2 vectors
   NREBOOT  =      0    no. of reboots
   NMIN     =      0    reboot dimension
   EREF     =   0.00    reference energy to select bands
   IMIX   =      4    mixing-type and parameters
     AMIX     =   0.40;   BMIX     =  1.00
     AMIX_MAG =   1.60;   BMIX_MAG =  1.00
     AMIN     =   0.10
     WC   =   100.;   INIMIX=   1;  MIXPRE=   1;  MAXMIX= -45

 Intra band minimization:
   WEIMIN = 0.0000     energy-eigenvalue tresh-hold
   EBREAK =  0.17E-05  absolut break condition
   DEPER  =   0.30     relativ break condition  

   TIME   =   0.40     timestep for ELM

  volume/ion in A,a.u.               =      11.89        80.25
  Fermi-wavevector in a.u.,A,eV,Ry     =   1.397674  2.641221 26.578878  1.953492
  Thomas-Fermi vector in A             =   2.520907
 
 Write flags
   LWAVE        =      F    write WAVECAR
   LDOWNSAMPLE  =      F    k-point downsampling of WAVECAR
   LCHARG       =      T    write CHGCAR
   LVTOT        =      F    write LOCPOT, total local potential
   LVHAR        =      F    write LOCPOT, Hartree potential only
   LELF         =      F    write electronic localiz. function (ELF)
   LORBIT       =     11    0 simple, 1 ext, 2 COOP (PROOUT), +10 PAW based schemes


 Dipole corrections
   LMONO  =      F    monopole corrections only (constant potential shift)
   LDIPOL =      F    correct potential (dipole corrections)
   IDIPOL =      0    1-x, 2-y, 3-z, 4-all directions 
   EPSILON=  1.0000000 bulk dielectric constant

 LDA+U is selected, type is set to LDAUTYPE =  2
   angular momentum for each species LDAUL =     0    2    2    0
   U (eV)           for each species LDAUU =   0.0  3.9  6.2  0.0
   J (eV)           for each species LDAUJ =   0.0  0.0  0.0  0.0
 Exchange correlation treatment:
   GGA     =    --    GGA type
   LEXCH   =     8    internal setting for exchange type
   VOSKOWN=      0    Vosko Wilk Nusair interpolation
   LHFCALC =     F    Hartree Fock is set to
   LHFONE  =     F    Hartree Fock one center treatment
   AEXX    =    0.0000 exact exchange contribution

 Linear response parameters
   LEPSILON=     F    determine dielectric tensor
   LRPA    =     F    only Hartree local field effects (RPA)
   LNABLA  =     F    use nabla operator in PAW spheres
   LVEL    =     F    velocity operator in full k-point grid
   LINTERFAST=   F  fast interpolation
   KINTER  =     0    interpolate to denser k-point grid
   CSHIFT  =0.1000    complex shift for real part using Kramers Kronig
   OMEGAMAX=  -1.0    maximum frequency
   DEG_THRESHOLD= 0.2000000E-02 threshold for treating states as degnerate
   RTIME   =   -0.100 relaxation time in fs
  (WPLASMAI=    0.000 imaginary part of plasma frequency in eV, 0.658/RTIME)
   DFIELD  = 0.0000000 0.0000000 0.0000000 field for delta impulse in time
 
 Orbital magnetization related:
   ORBITALMAG=     F  switch on orbital magnetization
   LCHIMAG   =     F  perturbation theory with respect to B field
   DQ        =  0.001000  dq finite difference perturbation B field
   LLRAUG    =     F  two centre corrections for induced B field



--------------------------------------------------------------------------------------------------------


 Static calculation
 charge density and potential will be updated during run
 spin polarized calculation
 RMM-DIIS sequential band-by-band and
  variant of blocked Davidson during initial phase
 perform sub-space diagonalisation
    before iterative eigenvector-optimisation
 modified Broyden-mixing scheme, WC =      100.0
 initial mixing is a Kerker type mixing with AMIX =  0.4000 and BMIX =      1.0000
 Hartree-type preconditioning will be used
 using additional bands           33
 real space projection scheme for non local part
 use partial core corrections
 calculate Harris-corrections to forces 
   (improved forces if not selfconsistent)
 use gradient corrections 
 use of overlap-Matrix (Vanderbilt PP)
 Fermi weights with tetrahedron method with Bloechl corrections


--------------------------------------------------------------------------------------------------------


  energy-cutoff  :      520.00
  volume of cell :      356.75
      direct lattice vectors                 reciprocal lattice vectors
     3.898719134 -3.898719134  0.000000000     0.128247248 -0.128247248  0.042607301
     3.898719134  3.898719134  0.000000000     0.128247248  0.128247248  0.042607301
    -3.898719134  0.000000000 11.735077924     0.000000000  0.000000000  0.085214602

  length of vectors
     5.513621475  5.513621475 12.365761795     0.186306456  0.186306456  0.085214602


 
 k-points in units of 2pi/SCALE and weight: Automatic mesh                          
   0.00000000  0.00000000  0.00000000       0.031
   0.03206181 -0.03206181  0.01065183       0.125
   0.06412362 -0.06412362  0.02130365       0.125
   0.06412362  0.00000000  0.02130365       0.125
   0.09618544 -0.03206181  0.03195548       0.250
   0.00000000  0.06412362  0.00000000       0.062
   0.12824725  0.00000000  0.04260730       0.062
   0.00000000  0.00000000  0.04260730       0.031
   0.03206181 -0.03206181  0.05325913       0.125
   0.00000000  0.06412362  0.04260730       0.062
 
 k-points in reciprocal lattice and weights: Automatic mesh                          
   0.00000000  0.00000000  0.00000000       0.031
   0.25000000  0.00000000  0.00000000       0.125
   0.50000000  0.00000000  0.00000000       0.125
   0.25000000  0.25000000  0.00000000       0.125
   0.50000000  0.25000000  0.00000000       0.250
  -0.25000000  0.25000000  0.00000000       0.062
   0.50000000  0.50000000  0.00000000       0.062
   0.00000000  0.00000000  0.50000000       0.031
   0.25000000  0.00000000  0.50000000       0.125
  -0.25000000  0.25000000  0.50000000       0.062
 
 position of ions in fractional coordinates (direct lattice) 
   0.16461193  0.16461193  0.32922376
   0.33538807  0.33538807  0.67077624
   0.50000000  0.50000000  0.00000000
   0.66461193  0.66461193  0.32922376
   0.83538807  0.83538807  0.67077624
   0.00000000  0.00000000  0.00000000
   0.75000000  0.25000000  0.50000000
   0.91727035  0.41727035  0.83454061
   0.58272965  0.08272965  0.16545939
   0.25000000  0.75000000  0.50000000
   0.41651203  0.91651203  0.83302395
   0.08348797  0.58348797  0.16697605
   0.83516937  0.33516937  0.67033885
   0.66483063  0.16483063  0.32966115
   0.50062286  0.00062286  0.00124572
   0.33208317  0.83208317  0.66416644
   0.16791683  0.66791683  0.33583356
   0.99937714  0.49937714  0.99875428
   0.16166068  0.17091228  0.83257287
   0.00130363  0.99869637  0.50000000
   0.82908772  0.83833932  0.16742713
   0.67091228  0.66166068  0.83257287
   0.49869637  0.50130363  0.50000000
   0.33833932  0.32908772  0.16742713
   0.67091228  0.17091228  0.83257287
   0.49869637  0.99869637  0.50000000
   0.33833932  0.83833932  0.16742713
   0.16166068  0.66166068  0.83257287
   0.00130363  0.50130363  0.50000000
   0.82908772  0.32908772  0.16742713
 
 position of ions in cartesian coordinates  (Angst):
   0.00000039  0.00000000  3.86346652
  -0.00000039  0.00000000  7.87161141
   3.89871913  0.00000000  0.00000000
   3.89871952  0.00000000  3.86346652
   3.89871874  0.00000000  7.87161141
   0.00000000  0.00000000  0.00000000
   1.94935957 -1.94935957  5.86753896
   1.94935996 -1.94935957  9.79339906
   1.94935918 -1.94935957  1.94167887
   1.94935957  1.94935957  5.86753896
   1.94935996  1.94935957  9.77560098
   1.94935918  1.94935957  1.95947694
   1.94935918 -1.94935957  7.86647861
   1.94935996 -1.94935957  3.86859931
   1.94935957 -1.94935957  0.01461859
   1.94935918  1.94935957  7.79404493
   1.94935996  1.94935957  3.94103300
   1.94935957 -1.94935957 11.72045934
  -1.94935918  0.03606938  9.77030749
   1.94935957  3.88855413  5.86753896
   5.84807831  0.03606938  1.96477044
   1.94935996 -0.03606938  9.77030749
   1.94935957  0.01016500  5.86753896
   1.94935918 -0.03606938  1.96477044
   0.03606977 -1.94935957  9.77030749
   3.88855413  1.94935957  5.86753896
   3.93478813  1.94935957  1.96477044
  -0.03606899  1.94935957  9.77030749
   0.01016500  1.94935957  5.86753896
   3.86264936 -1.94935957  1.96477044
 


--------------------------------------------------------------------------------------------------------


 k-point  1 :   0.0000 0.0000 0.0000  plane waves:    9563
 k-point  2 :   0.2500 0.0000 0.0000  plane waves:    9614
 k-point  3 :   0.5000 0.0000 0.0000  plane waves:    9580
 k-point  4 :   0.2500 0.2500 0.0000  plane waves:    9580
 k-point  5 :   0.5000 0.2500 0.0000  plane waves:    9597
 k-point  6 :  -0.2500 0.2500 0.0000  plane waves:    9592
 k-point  7 :   0.5000 0.5000 0.0000  plane waves:    9638
 k-point  8 :   0.0000 0.0000 0.5000  plane waves:    9680
 k-point  9 :   0.2500 0.0000 0.5000  plane waves:    9617
 k-point 10 :  -0.2500 0.2500 0.5000  plane waves:    9584

 maximum and minimum number of plane-waves per node :       983      936

 maximum number of plane-waves:      9680
 maximum index in each direction: 
   IXMAX=   10   IYMAX=   10   IZMAX=   22
   IXMIN=  -10   IYMIN=  -10   IZMIN=  -23


 real space projection operators:
  total allocation   :      21307.38 KBytes
  max/ min on nodes  :       2546.00       2010.58


 parallel 3D FFT for wavefunctions:
    minimum data exchange during FFTs selected (reduces bandwidth)
 parallel 3D FFT for charge:
    minimum data exchange during FFTs selected (reduces bandwidth)


 total amount of memory used by VASP MPI-rank0    74020. kBytes
=======================================================================

   base      :      30000. kBytes
   nonlr-proj:       7524. kBytes
   fftplans  :       3228. kBytes
   grid      :       9428. kBytes
   one-center:        294. kBytes
   wavefun   :      23546. kBytes
 
     INWAV:  cpu time    0.0000: real time    0.0001
 Broyden mixing: mesh for mixing (old mesh)
   NGX = 21   NGY = 21   NGZ = 45
  (NGX  = 84   NGY  = 84   NGZ  =192)
  gives a total of  19845 points

 initial charge density was supplied:
 charge density of overlapping atoms calculated
 number of electron     222.0000000 magnetization      22.0000000
 keeping initial charge density in first step


--------------------------------------------------------------------------------------------------------


 Maximum index for non-local projection operator         1204
 Maximum index for augmentation-charges         1957 (set IRDMAX)


--------------------------------------------------------------------------------------------------------


 First call to EWALD:  gamma=   0.250
 Maximum number of real-space cells 3x 3x 2
 Maximum number of reciprocal cells 2x 2x 4

    FEWALD:  cpu time    0.0017: real time    0.0017


--------------------------------------- Iteration      1(   1)  ---------------------------------------


    POTLOK:  cpu time    0.0868: real time    0.0898
    SETDIJ:  cpu time    0.0173: real time    0.0173
atom =   1  type =  1  l = 0
 
 onsite density matrix
 
spin component  1
 
  1.0989
 
spin component  2
 
  1.0989
 
 occupancies and eigenvectors
 
  o =  1.0989  v =  1.0000  0.0000      0.0000  0.0000
  o =  1.0989  v =  0.0000  1.0000      0.0000  0.0000
atom =   2  type =  1  l = 0
 
 onsite density matrix
 
spin component  1
 
  1.0989
 
spin component  2
 
  1.0989
 
 occupancies and eigenvectors
 
  o =  1.0989  v =  1.0000  0.0000      0.0000  0.0000
  o =  1.0989  v =  0.0000  1.0000      0.0000  0.0000
atom =   3  type =  1  l = 0
 
 onsite density matrix
 
spin component  1
 
  1.0989
 
spin component  2
 
  1.0989
 
 occupancies and eigenvectors
 
  o =  1.0989  v =  1.0000  0.0000      0.0000  0.0000
  o =  1.0989  v =  0.0000  1.0000      0.0000  0.0000
atom =   4  type =  1  l = 0
 
 onsite density matrix
 
spin component  1
 
  1.0989
 
spin component  2
 
  1.0989
 
 occupancies and eigenvectors
 
  o =  1.0989  v =  1.0000  0.0000      0.0000  0.0000
  o =  1.0989  v =  0.0000  1.0000      0.0000  0.0000
atom =   5  type =  1  l = 0
 
 onsite density matrix
 
spin component  1
 
  1.0989
 
spin component  2
 
  1.0989
 
 occupancies and eigenvectors
 
  o =  1.0989  v =  1.0000  0.0000      0.0000  0.0000
  o =  1.0989  v =  0.0000  1.0000      0.0000  0.0000
atom =   6  type =  1  l = 0
 
 onsite density matrix
 
spin component  1
 
  1.0989
 
spin component  2
 
  1.0989
 
 occupancies and eigenvectors
 
  o =  1.0989  v =  1.0000  0.0000      0.0000  0.0000
  o =  1.0989  v =  0.0000  1.0000      0.0000  0.0000
atom =   7  type =  2  l = 2
 
 onsite density matrix
 
spin component  1
 
  0.8272  0.0000  0.0000  0.0000  0.0000
  0.0000  0.8272  0.0000  0.0000  0.0000
  0.0000  0.0000  0.8272  0.0000  0.0000
  0.0000  0.0000  0.0000  0.8272  0.0000
  0.0000  0.0000  0.0000  0.0000  0.8272
 
spin component  2
 
  0.2256  0.0000  0.0000  0.0000  0.0000
  0.0000  0.2256  0.0000  0.0000  0.0000
  0.0000  0.0000  0.2256  0.0000  0.0000
  0.0000  0.0000  0.0000  0.2256  0.0000
  0.0000  0.0000  0.0000  0.0000  0.2256
 
 occupancies and eigenvectors
 
  o =  0.2256  v =  0.0000  0.0000  0.0000  0.0000  0.0000  0.0000  0.0000  1.0000  0.0000  0.0000      0.0000  0.0000  0.0000  0.0000  0.0000  0.0000  0.0000  0.0000  0.0000  0.0000
  o =  0.2256  v =  0.0000  0.0000  0.0000  0.0000  0.0000  1.0000  0.0000  0.0000  0.0000  0.0000      0.0000  0.0000  0.0000  0.0000  0.0000  0.0000  0.0000  0.0000  0.0000  0.0000
  o =  0.2256  v =  0.0000  0.0000  0.0000  0.0000  0.0000  0.0000  1.0000  0.0000  0.0000  0.0000      0.0000  0.0000  0.0000  0.0000  0.0000  0.0000  0.0000  0.0000  0.0000  0.0000
  o =  0.2256  v =  0.0000  0.0000  0.0000  0.0000  0.0000  0.0000  0.0000  0.0000  1.0000  0.0000      0.0000  0.0000  0.0000  0.0000  0.0000  0.0000  0.0000  0.0000  0.0000  0.0000
  o =  0.2256  v =  0.0000  0.0000  0.0000  0.0000  0.0000  0.0000  0.0000  0.0000  0.0000  1.0000      0.0000  0.0000  0.0000  0.0000  0.0000  0.0000  0.0000  0.0000  0.0000  0.0000
  o =  0.8272  v =  0.0000  1.0000  0.0000  0.0000  0.0000  0.0000  0.0000  0.0000  0.0000  0.0000      0.0000  0.0000  0.0000  0.0000  0.0000  0.0000  0.0000  0.0000  0.0000  0.0000
  o =  0.8272  v =  0.0000  0.0000  1.0000  0.0000  0.0000  0.0000  0.0000  0.0000  0.0000  0.0000      0.0000  0.0000  0.0000  0.0000  0.0000  0.0000  0.0000  0.0000  0.0000  0.0000
  o =  0.8272  v =  1.0000  0.0000  0.0000  0.0000  0.0000  0.0000  0.0000  0.0000  0.0000  0.0000      0.0000  0.0000  0.0000  0.0000  0.0000  0.0000  0.0000  0.0000  0.0000  0.0000
  o =  0.8272  v =  0.0000  0.0000  0.0000  1.0000  0.0000  0.0000  0.0000  0.0000  0.0000  0.0000      0.0000  0.0000  0.0000  0.0000  0.0000  0.0000  0.0000  0.0000  0.0000  0.0000
  o =  0.8272  v =  0.0000  0.0000  0.0000  0.0000  1.0000  0.0000  0.0000  0.0000  0.0000  0.0000      0.0000  0.0000  0.0000  0.0000  0.0000  0.0000  0.0000  0.0000  0.0000  0.0000
atom =   8  type =  2  l = 2
 
 onsite density matrix
 
spin component  1
 
  0.8272  0.0000  0.0000  0.0000  0.0000
  0.0000  0.8272  0.0000  0.0000  0.0000
  0.0000  0.0000  0.8272  0.0000  0.0000
  0.0000  0.0000  0.0000  0.8272  0.0000
  0.0000  0.0000  0.0000  0.0000  0.8272
 
spin component  2
 
  0.2256  0.0000  0.0000  0.0000  0.0000
  0.0000  0.2256  0.0000  0.0000  0.0000
  0.0000  0.0000  0.2256  0.0000  0.0000
  0.0000  0.0000  0.0000  0.2256  0.0000
  0.0000  0.0000  0.0000  0.0000  0.2256
 
 occupancies and eigenvectors
 
  o =  0.2256  v =  0.0000  0.0000  0.0000  0.0000  0.0000  0.0000  0.0000  1.0000  0.0000  0.0000      0.0000  0.0000  0.0000  0.0000  0.0000  0.0000  0.0000  0.0000  0.0000  0.0000
  o =  0.2256  v =  0.0000  0.0000  0.0000  0.0000  0.0000  1.0000  0.0000  0.0000  0.0000  0.0000      0.0000  0.0000  0.0000  0.0000  0.0000  0.0000  0.0000  0.0000  0.0000  0.0000
  o =  0.2256  v =  0.0000  0.0000  0.0000  0.0000  0.0000  0.0000  1.0000  0.0000  0.0000  0.0000      0.0000  0.0000  0.0000  0.0000  0.0000  0.0000  0.0000  0.0000  0.0000  0.0000
  o =  0.2256  v =  0.0000  0.0000  0.0000  0.0000  0.0000  0.0000  0.0000  0.0000  1.0000  0.0000      0.0000  0.0000  0.0000  0.0000  0.0000  0.0000  0.0000  0.0000  0.0000  0.0000
  o =  0.2256  v =  0.0000  0.0000  0.0000  0.0000  0.0000  0.0000  0.0000  0.0000  0.0000  1.0000      0.0000  0.0000  0.0000  0.0000  0.0000  0.0000  0.0000  0.0000  0.0000  0.0000
  o =  0.8272  v =  0.0000  1.0000  0.0000  0.0000  0.0000  0.0000  0.0000  0.0000  0.0000  0.0000      0.0000  0.0000  0.0000  0.0000  0.0000  0.0000  0.0000  0.0000  0.0000  0.0000
  o =  0.8272  v =  0.0000  0.0000  1.0000  0.0000  0.0000  0.0000  0.0000  0.0000  0.0000  0.0000      0.0000  0.0000  0.0000  0.0000  0.0000  0.0000  0.0000  0.0000  0.0000  0.0000
  o =  0.8272  v =  1.0000  0.0000  0.0000  0.0000  0.0000  0.0000  0.0000  0.0000  0.0000  0.0000      0.0000  0.0000  0.0000  0.0000  0.0000  0.0000  0.0000  0.0000  0.0000  0.0000
  o =  0.8272  v =  0.0000  0.0000  0.0000  1.0000  0.0000  0.0000  0.0000  0.0000  0.0000  0.0000      0.0000  0.0000  0.0000  0.0000  0.0000  0.0000  0.0000  0.0000  0.0000  0.0000
  o =  0.8272  v =  0.0000  0.0000  0.0000  0.0000  1.0000  0.0000  0.0000  0.0000  0.0000  0.0000      0.0000  0.0000  0.0000  0.0000  0.0000  0.0000  0.0000  0.0000  0.0000  0.0000
atom =   9  type =  2  l = 2
 
 onsite density matrix
 
spin component  1
 
  0.8272  0.0000  0.0000  0.0000  0.0000
  0.0000  0.8272  0.0000  0.0000  0.0000
  0.0000  0.0000  0.8272  0.0000  0.0000
  0.0000  0.0000  0.0000  0.8272  0.0000
  0.0000  0.0000  0.0000  0.0000  0.8272
 
spin component  2
 
  0.2256  0.0000  0.0000  0.0000  0.0000
  0.0000  0.2256  0.0000  0.0000  0.0000
  0.0000  0.0000  0.2256  0.0000  0.0000
  0.0000  0.0000  0.0000  0.2256  0.0000
  0.0000  0.0000  0.0000  0.0000  0.2256
 
 occupancies and eigenvectors
 
  o =  0.2256  v =  0.0000  0.0000  0.0000  0.0000  0.0000  0.0000  0.0000  1.0000  0.0000  0.0000      0.0000  0.0000  0.0000  0.0000  0.0000  0.0000  0.0000  0.0000  0.0000  0.0000
  o =  0.2256  v =  0.0000  0.0000  0.0000  0.0000  0.0000  1.0000  0.0000  0.0000  0.0000  0.0000      0.0000  0.0000  0.0000  0.0000  0.0000  0.0000  0.0000  0.0000  0.0000  0.0000
  o =  0.2256  v =  0.0000  0.0000  0.0000  0.0000  0.0000  0.0000  1.0000  0.0000  0.0000  0.0000      0.0000  0.0000  0.0000  0.0000  0.0000  0.0000  0.0000  0.0000  0.0000  0.0000
  o =  0.2256  v =  0.0000  0.0000  0.0000  0.0000  0.0000  0.0000  0.0000  0.0000  1.0000  0.0000      0.0000  0.0000  0.0000  0.0000  0.0000  0.0000  0.0000  0.0000  0.0000  0.0000
  o =  0.2256  v =  0.0000  0.0000  0.0000  0.0000  0.0000  0.0000  0.0000  0.0000  0.0000  1.0000      0.0000  0.0000  0.0000  0.0000  0.0000  0.0000  0.0000  0.0000  0.0000  0.0000
  o =  0.8272  v =  0.0000  1.0000  0.0000  0.0000  0.0000  0.0000  0.0000  0.0000  0.0000  0.0000      0.0000  0.0000  0.0000  0.0000  0.0000  0.0000  0.0000  0.0000  0.0000  0.0000
  o =  0.8272  v =  0.0000  0.0000  1.0000  0.0000  0.0000  0.0000  0.0000  0.0000  0.0000  0.0000      0.0000  0.0000  0.0000  0.0000  0.0000  0.0000  0.0000  0.0000  0.0000  0.0000
  o =  0.8272  v =  1.0000  0.0000  0.0000  0.0000  0.0000  0.0000  0.0000  0.0000  0.0000  0.0000      0.0000  0.0000  0.0000  0.0000  0.0000  0.0000  0.0000  0.0000  0.0000  0.0000
  o =  0.8272  v =  0.0000  0.0000  0.0000  1.0000  0.0000  0.0000  0.0000  0.0000  0.0000  0.0000      0.0000  0.0000  0.0000  0.0000  0.0000  0.0000  0.0000  0.0000  0.0000  0.0000
  o =  0.8272  v =  0.0000  0.0000  0.0000  0.0000  1.0000  0.0000  0.0000  0.0000  0.0000  0.0000      0.0000  0.0000  0.0000  0.0000  0.0000  0.0000  0.0000  0.0000  0.0000  0.0000
atom =  10  type =  2  l = 2
 
 onsite density matrix
 
spin component  1
 
  0.8272  0.0000  0.0000  0.0000  0.0000
  0.0000  0.8272  0.0000  0.0000  0.0000
  0.0000  0.0000  0.8272  0.0000  0.0000
  0.0000  0.0000  0.0000  0.8272  0.0000
  0.0000  0.0000  0.0000  0.0000  0.8272
 
spin component  2
 
  0.2256  0.0000  0.0000  0.0000  0.0000
  0.0000  0.2256  0.0000  0.0000  0.0000
  0.0000  0.0000  0.2256  0.0000  0.0000
  0.0000  0.0000  0.0000  0.2256  0.0000
  0.0000  0.0000  0.0000  0.0000  0.2256
 
 occupancies and eigenvectors
 
  o =  0.2256  v =  0.0000  0.0000  0.0000  0.0000  0.0000  0.0000  0.0000  1.0000  0.0000  0.0000      0.0000  0.0000  0.0000  0.0000  0.0000  0.0000  0.0000  0.0000  0.0000  0.0000
  o =  0.2256  v =  0.0000  0.0000  0.0000  0.0000  0.0000  1.0000  0.0000  0.0000  0.0000  0.0000      0.0000  0.0000  0.0000  0.0000  0.0000  0.0000  0.0000  0.0000  0.0000  0.0000
  o =  0.2256  v =  0.0000  0.0000  0.0000  0.0000  0.0000  0.0000  1.0000  0.0000  0.0000  0.0000      0.0000  0.0000  0.0000  0.0000  0.0000  0.0000  0.0000  0.0000  0.0000  0.0000
  o =  0.2256  v =  0.0000  0.0000  0.0000  0.0000  0.0000  0.0000  0.0000  0.0000  1.0000  0.0000      0.0000  0.0000  0.0000  0.0000  0.0000  0.0000  0.0000  0.0000  0.0000  0.0000
  o =  0.2256  v =  0.0000  0.0000  0.0000  0.0000  0.0000  0.0000  0.0000  0.0000  0.0000  1.0000      0.0000  0.0000  0.0000  0.0000  0.0000  0.0000  0.0000  0.0000  0.0000  0.0000
  o =  0.8272  v =  0.0000  1.0000  0.0000  0.0000  0.0000  0.0000  0.0000  0.0000  0.0000  0.0000      0.0000  0.0000  0.0000  0.0000  0.0000  0.0000  0.0000  0.0000  0.0000  0.0000
  o =  0.8272  v =  0.0000  0.0000  1.0000  0.0000  0.0000  0.0000  0.0000  0.0000  0.0000  0.0000      0.0000  0.0000  0.0000  0.0000  0.0000  0.0000  0.0000  0.0000  0.0000  0.0000
  o =  0.8272  v =  1.0000  0.0000  0.0000  0.0000  0.0000  0.0000  0.0000  0.0000  0.0000  0.0000      0.0000  0.0000  0.0000  0.0000  0.0000  0.0000  0.0000  0.0000  0.0000  0.0000
  o =  0.8272  v =  0.0000  0.0000  0.0000  1.0000  0.0000  0.0000  0.0000  0.0000  0.0000  0.0000      0.0000  0.0000  0.0000  0.0000  0.0000  0.0000  0.0000  0.0000  0.0000  0.0000
  o =  0.8272  v =  0.0000  0.0000  0.0000  0.0000  1.0000  0.0000  0.0000  0.0000  0.0000  0.0000      0.0000  0.0000  0.0000  0.0000  0.0000  0.0000  0.0000  0.0000  0.0000  0.0000
atom =  11  type =  3  l = 2
 
 onsite density matrix
 
spin component  1
 
  1.1008  0.0000  0.0000  0.0000  0.0000
  0.0000  1.1008  0.0000  0.0000  0.0000
  0.0000  0.0000  1.1008  0.0000  0.0000
  0.0000  0.0000  0.0000  1.1008  0.0000
  0.0000  0.0000  0.0000  0.0000  1.1008
 
spin component  2
 
  0.5927  0.0000  0.0000  0.0000  0.0000
  0.0000  0.5927  0.0000  0.0000  0.0000
  0.0000  0.0000  0.5927  0.0000  0.0000
  0.0000  0.0000  0.0000  0.5927  0.0000
  0.0000  0.0000  0.0000  0.0000  0.5927
 
 occupancies and eigenvectors
 
  o =  0.5927  v =  0.0000  0.0000  0.0000  0.0000  0.0000  1.0000  0.0000  0.0000  0.0000  0.0000      0.0000  0.0000  0.0000  0.0000  0.0000  0.0000  0.0000  0.0000  0.0000  0.0000
  o =  0.5927  v =  0.0000  0.0000  0.0000  0.0000  0.0000  0.0000  1.0000  0.0000  0.0000  0.0000      0.0000  0.0000  0.0000  0.0000  0.0000  0.0000  0.0000  0.0000  0.0000  0.0000
  o =  0.5927  v =  0.0000  0.0000  0.0000  0.0000  0.0000  0.0000  0.0000  1.0000  0.0000  0.0000      0.0000  0.0000  0.0000  0.0000  0.0000  0.0000  0.0000  0.0000  0.0000  0.0000
  o =  0.5927  v =  0.0000  0.0000  0.0000  0.0000  0.0000  0.0000  0.0000  0.0000  1.0000  0.0000      0.0000  0.0000  0.0000  0.0000  0.0000  0.0000  0.0000  0.0000  0.0000  0.0000
  o =  0.5927  v =  0.0000  0.0000  0.0000  0.0000  0.0000  0.0000  0.0000  0.0000  0.0000  1.0000      0.0000  0.0000  0.0000  0.0000  0.0000  0.0000  0.0000  0.0000  0.0000  0.0000
  o =  1.1008  v =  1.0000  0.0000  0.0000  0.0000  0.0000  0.0000  0.0000  0.0000  0.0000  0.0000      0.0000  0.0000  0.0000  0.0000  0.0000  0.0000  0.0000  0.0000  0.0000  0.0000
  o =  1.1008  v =  0.0000  1.0000  0.0000  0.0000  0.0000  0.0000  0.0000  0.0000  0.0000  0.0000      0.0000  0.0000  0.0000  0.0000  0.0000  0.0000  0.0000  0.0000  0.0000  0.0000
  o =  1.1008  v =  0.0000  0.0000  1.0000  0.0000  0.0000  0.0000  0.0000  0.0000  0.0000  0.0000      0.0000  0.0000  0.0000  0.0000  0.0000  0.0000  0.0000  0.0000  0.0000  0.0000
  o =  1.1008  v =  0.0000  0.0000  0.0000  1.0000  0.0000  0.0000  0.0000  0.0000  0.0000  0.0000      0.0000  0.0000  0.0000  0.0000  0.0000  0.0000  0.0000  0.0000  0.0000  0.0000
  o =  1.1008  v =  0.0000  0.0000  0.0000  0.0000  1.0000  0.0000  0.0000  0.0000  0.0000  0.0000      0.0000  0.0000  0.0000  0.0000  0.0000  0.0000  0.0000  0.0000  0.0000  0.0000
atom =  12  type =  3  l = 2
 
 onsite density matrix
 
spin component  1
 
  1.1008  0.0000  0.0000  0.0000  0.0000
  0.0000  1.1008  0.0000  0.0000  0.0000
  0.0000  0.0000  1.1008  0.0000  0.0000
  0.0000  0.0000  0.0000  1.1008  0.0000
  0.0000  0.0000  0.0000  0.0000  1.1008
 
spin component  2
 
  0.5927  0.0000  0.0000  0.0000  0.0000
  0.0000  0.5927  0.0000  0.0000  0.0000
  0.0000  0.0000  0.5927  0.0000  0.0000
  0.0000  0.0000  0.0000  0.5927  0.0000
  0.0000  0.0000  0.0000  0.0000  0.5927
 
 occupancies and eigenvectors
 
  o =  0.5927  v =  0.0000  0.0000  0.0000  0.0000  0.0000  1.0000  0.0000  0.0000  0.0000  0.0000      0.0000  0.0000  0.0000  0.0000  0.0000  0.0000  0.0000  0.0000  0.0000  0.0000
  o =  0.5927  v =  0.0000  0.0000  0.0000  0.0000  0.0000  0.0000  1.0000  0.0000  0.0000  0.0000      0.0000  0.0000  0.0000  0.0000  0.0000  0.0000  0.0000  0.0000  0.0000  0.0000
  o =  0.5927  v =  0.0000  0.0000  0.0000  0.0000  0.0000  0.0000  0.0000  1.0000  0.0000  0.0000      0.0000  0.0000  0.0000  0.0000  0.0000  0.0000  0.0000  0.0000  0.0000  0.0000
  o =  0.5927  v =  0.0000  0.0000  0.0000  0.0000  0.0000  0.0000  0.0000  0.0000  1.0000  0.0000      0.0000  0.0000  0.0000  0.0000  0.0000  0.0000  0.0000  0.0000  0.0000  0.0000
  o =  0.5927  v =  0.0000  0.0000  0.0000  0.0000  0.0000  0.0000  0.0000  0.0000  0.0000  1.0000      0.0000  0.0000  0.0000  0.0000  0.0000  0.0000  0.0000  0.0000  0.0000  0.0000
  o =  1.1008  v =  1.0000  0.0000  0.0000  0.0000  0.0000  0.0000  0.0000  0.0000  0.0000  0.0000      0.0000  0.0000  0.0000  0.0000  0.0000  0.0000  0.0000  0.0000  0.0000  0.0000
  o =  1.1008  v =  0.0000  1.0000  0.0000  0.0000  0.0000  0.0000  0.0000  0.0000  0.0000  0.0000      0.0000  0.0000  0.0000  0.0000  0.0000  0.0000  0.0000  0.0000  0.0000  0.0000
  o =  1.1008  v =  0.0000  0.0000  1.0000  0.0000  0.0000  0.0000  0.0000  0.0000  0.0000  0.0000      0.0000  0.0000  0.0000  0.0000  0.0000  0.0000  0.0000  0.0000  0.0000  0.0000
  o =  1.1008  v =  0.0000  0.0000  0.0000  1.0000  0.0000  0.0000  0.0000  0.0000  0.0000  0.0000      0.0000  0.0000  0.0000  0.0000  0.0000  0.0000  0.0000  0.0000  0.0000  0.0000
  o =  1.1008  v =  0.0000  0.0000  0.0000  0.0000  1.0000  0.0000  0.0000  0.0000  0.0000  0.0000      0.0000  0.0000  0.0000  0.0000  0.0000  0.0000  0.0000  0.0000  0.0000  0.0000
atom =  13  type =  4  l = 0
 
 onsite density matrix
 
spin component  1
 
  0.8190
 
spin component  2
 
  0.8190
 
 occupancies and eigenvectors
 
  o =  0.8190  v =  1.0000  0.0000      0.0000  0.0000
  o =  0.8190  v =  0.0000  1.0000      0.0000  0.0000
atom =  14  type =  4  l = 0
 
 onsite density matrix
 
spin component  1
 
  0.8190
 
spin component  2
 
  0.8190
 
 occupancies and eigenvectors
 
  o =  0.8190  v =  1.0000  0.0000      0.0000  0.0000
  o =  0.8190  v =  0.0000  1.0000      0.0000  0.0000
atom =  15  type =  4  l = 0
 
 onsite density matrix
 
spin component  1
 
  0.8190
 
spin component  2
 
  0.8190
 
 occupancies and eigenvectors
 
  o =  0.8190  v =  1.0000  0.0000      0.0000  0.0000
  o =  0.8190  v =  0.0000  1.0000      0.0000  0.0000
atom =  16  type =  4  l = 0
 
 onsite density matrix
 
spin component  1
 
  0.8190
 
spin component  2
 
  0.8190
 
 occupancies and eigenvectors
 
  o =  0.8190  v =  1.0000  0.0000      0.0000  0.0000
  o =  0.8190  v =  0.0000  1.0000      0.0000  0.0000
atom =  17  type =  4  l = 0
 
 onsite density matrix
 
spin component  1
 
  0.8190
 
spin component  2
 
  0.8190
 
 occupancies and eigenvectors
 
  o =  0.8190  v =  1.0000  0.0000      0.0000  0.0000
  o =  0.8190  v =  0.0000  1.0000      0.0000  0.0000
atom =  18  type =  4  l = 0
 
 onsite density matrix
 
spin component  1
 
  0.8190
 
spin component  2
 
  0.8190
 
 occupancies and eigenvectors
 
  o =  0.8190  v =  1.0000  0.0000      0.0000  0.0000
  o =  0.8190  v =  0.0000  1.0000      0.0000  0.0000
atom =  19  type =  4  l = 0
 
 onsite density matrix
 
spin component  1
 
  0.8190
 
spin component  2
 
  0.8190
 
 occupancies and eigenvectors
 
  o =  0.8190  v =  1.0000  0.0000      0.0000  0.0000
  o =  0.8190  v =  0.0000  1.0000      0.0000  0.0000
atom =  20  type =  4  l = 0
 
 onsite density matrix
 
spin component  1
 
  0.8190
 
spin component  2
 
  0.8190
 
 occupancies and eigenvectors
 
  o =  0.8190  v =  1.0000  0.0000      0.0000  0.0000
  o =  0.8190  v =  0.0000  1.0000      0.0000  0.0000
atom =  21  type =  4  l = 0
 
 onsite density matrix
 
spin component  1
 
  0.8190
 
spin component  2
 
  0.8190
 
 occupancies and eigenvectors
 
  o =  0.8190  v =  1.0000  0.0000      0.0000  0.0000
  o =  0.8190  v =  0.0000  1.0000      0.0000  0.0000
atom =  22  type =  4  l = 0
 
 onsite density matrix
 
spin component  1
 
  0.8190
 
spin component  2
 
  0.8190
 
 occupancies and eigenvectors
 
  o =  0.8190  v =  1.0000  0.0000      0.0000  0.0000
  o =  0.8190  v =  0.0000  1.0000      0.0000  0.0000
atom =  23  type =  4  l = 0
 
 onsite density matrix
 
spin component  1
 
  0.8190
 
spin component  2
 
  0.8190
 
 occupancies and eigenvectors
 
  o =  0.8190  v =  1.0000  0.0000      0.0000  0.0000
  o =  0.8190  v =  0.0000  1.0000      0.0000  0.0000
atom =  24  type =  4  l = 0
 
 onsite density matrix
 
spin component  1
 
  0.8190
 
spin component  2
 
  0.8190
 
 occupancies and eigenvectors
 
  o =  0.8190  v =  1.0000  0.0000      0.0000  0.0000
  o =  0.8190  v =  0.0000  1.0000      0.0000  0.0000
atom =  25  type =  4  l = 0
 
 onsite density matrix
 
spin component  1
 
  0.8190
 
spin component  2
 
  0.8190
 
 occupancies and eigenvectors
 
  o =  0.8190  v =  1.0000  0.0000      0.0000  0.0000
  o =  0.8190  v =  0.0000  1.0000      0.0000  0.0000
atom =  26  type =  4  l = 0
 
 onsite density matrix
 
spin component  1
 
  0.8190
 
spin component  2
 
  0.8190
 
 occupancies and eigenvectors
 
  o =  0.8190  v =  1.0000  0.0000      0.0000  0.0000
  o =  0.8190  v =  0.0000  1.0000      0.0000  0.0000
atom =  27  type =  4  l = 0
 
 onsite density matrix
 
spin component  1
 
  0.8190
 
spin component  2
 
  0.8190
 
 occupancies and eigenvectors
 
  o =  0.8190  v =  1.0000  0.0000      0.0000  0.0000
  o =  0.8190  v =  0.0000  1.0000      0.0000  0.0000
atom =  28  type =  4  l = 0
 
 onsite density matrix
 
spin component  1
 
  0.8190
 
spin component  2
 
  0.8190
 
 occupancies and eigenvectors
 
  o =  0.8190  v =  1.0000  0.0000      0.0000  0.0000
  o =  0.8190  v =  0.0000  1.0000      0.0000  0.0000
atom =  29  type =  4  l = 0
 
 onsite density matrix
 
spin component  1
 
  0.8190
 
spin component  2
 
  0.8190
 
 occupancies and eigenvectors
 
  o =  0.8190  v =  1.0000  0.0000      0.0000  0.0000
  o =  0.8190  v =  0.0000  1.0000      0.0000  0.0000
atom =  30  type =  4  l = 0
 
 onsite density matrix
 
spin component  1
 
  0.8190
 
spin component  2
 
  0.8190
 
 occupancies and eigenvectors
 
  o =  0.8190  v =  1.0000  0.0000      0.0000  0.0000
  o =  0.8190  v =  0.0000  1.0000      0.0000  0.0000
     EDDAV:  cpu time    3.7859: real time    3.8059
 BZINTS: Fermi energy: 31.386458;222.000000 electrons
         Band energy:3308.597455;  BLOECHL correction: -0.105424
       DOS:  cpu time    0.0176: real time    0.0188
    --------------------------------------------
      LOOP:  cpu time    3.9076: real time    3.9319

 eigenvalue-minimisations  :  6184
 total energy-change (2. order) : 0.3561405E+04  (-0.7771581E+04)
 number of electron     222.0000000 magnetization      22.0000000
 augmentation part      222.0000000 magnetization      22.0000000

 Free energy of the ion-electron system (eV)
  ---------------------------------------------------
  alpha Z        PSCENC =       972.43652873
  Ewald energy   TEWEN  =    -15041.87837388
  -Hartree energ DENC   =     -3163.35567427
  -exchange      EXHF   =         0.00000000
  -V(xc)+E(xc)   XCENC  =       710.33274559
  PAW double counting   =     13644.53670636   -13669.90867429
  entropy T*S    EENTRO =         0.00000000
  eigenvalues    EBANDS =      3308.59745456
  atomic energy  EATOM  =     16800.64461370
  Solvation  Ediel_sol  =         0.00000000
  ---------------------------------------------------
  free energy    TOTEN  =      3561.40532649 eV

  energy without entropy =     3561.40532649  energy(sigma->0) =     3561.40532649


--------------------------------------------------------------------------------------------------------




--------------------------------------- Iteration      1(   2)  ---------------------------------------


     EDDAV:  cpu time    3.9151: real time    3.9309
 BZINTS: Fermi energy: 16.404347;222.000000 electrons
         Band energy: 985.932391;  BLOECHL correction: -0.033854
       DOS:  cpu time    0.0176: real time    0.0176
    --------------------------------------------
      LOOP:  cpu time    3.9327: real time    3.9485

 eigenvalue-minimisations  :  6472
 total energy-change (2. order) :-0.2322665E+04  (-0.2094877E+04)
 number of electron     222.0000000 magnetization      22.0000000
 augmentation part      222.0000000 magnetization      22.0000000

 Free energy of the ion-electron system (eV)
  ---------------------------------------------------
  alpha Z        PSCENC =       972.43652873
  Ewald energy   TEWEN  =    -15041.87837388
  -Hartree energ DENC   =     -3163.35567427
  -exchange      EXHF   =         0.00000000
  -V(xc)+E(xc)   XCENC  =       710.33274559
  PAW double counting   =     13644.53670636   -13669.90867429
  entropy T*S    EENTRO =         0.00000000
  eigenvalues    EBANDS =       985.93239096
  atomic energy  EATOM  =     16800.64461370
  Solvation  Ediel_sol  =         0.00000000
  ---------------------------------------------------
  free energy    TOTEN  =      1238.74026289 eV

  energy without entropy =     1238.74026289  energy(sigma->0) =     1238.74026289


--------------------------------------------------------------------------------------------------------




--------------------------------------- Iteration      1(   3)  ---------------------------------------


     EDDAV:  cpu time    3.9934: real time    4.0106
 BZINTS: Fermi energy: 12.040669;222.000000 electrons
         Band energy:  17.718489;  BLOECHL correction: -0.027276
       DOS:  cpu time    0.0174: real time    0.0174
    --------------------------------------------
      LOOP:  cpu time    4.0108: real time    4.0280

 eigenvalue-minimisations  :  6600
 total energy-change (2. order) :-0.9682139E+03  (-0.8733237E+03)
 number of electron     222.0000000 magnetization      22.0000000
 augmentation part      222.0000000 magnetization      22.0000000

 Free energy of the ion-electron system (eV)
  ---------------------------------------------------
  alpha Z        PSCENC =       972.43652873
  Ewald energy   TEWEN  =    -15041.87837388
  -Hartree energ DENC   =     -3163.35567427
  -exchange      EXHF   =         0.00000000
  -V(xc)+E(xc)   XCENC  =       710.33274559
  PAW double counting   =     13644.53670636   -13669.90867429
  entropy T*S    EENTRO =         0.00000000
  eigenvalues    EBANDS =        17.71848865
  atomic energy  EATOM  =     16800.64461370
  Solvation  Ediel_sol  =         0.00000000
  ---------------------------------------------------
  free energy    TOTEN  =       270.52636058 eV

  energy without entropy =      270.52636058  energy(sigma->0) =      270.52636058


--------------------------------------------------------------------------------------------------------




--------------------------------------- Iteration      1(   4)  ---------------------------------------


     EDDAV:  cpu time    5.2655: real time    5.2864
 BZINTS: Fermi energy: 11.319079;222.000000 electrons
         Band energy:-416.296356;  BLOECHL correction: -0.005023
       DOS:  cpu time    0.0181: real time    0.0183
    --------------------------------------------
      LOOP:  cpu time    5.2836: real time    5.3047

 eigenvalue-minimisations  :  9320
 total energy-change (2. order) :-0.4340148E+03  (-0.4090785E+03)
 number of electron     222.0000000 magnetization      22.0000000
 augmentation part      222.0000000 magnetization      22.0000000

 Free energy of the ion-electron system (eV)
  ---------------------------------------------------
  alpha Z        PSCENC =       972.43652873
  Ewald energy   TEWEN  =    -15041.87837388
  -Hartree energ DENC   =     -3163.35567427
  -exchange      EXHF   =         0.00000000
  -V(xc)+E(xc)   XCENC  =       710.33274559
  PAW double counting   =     13644.53670636   -13669.90867429
  entropy T*S    EENTRO =         0.00000000
  eigenvalues    EBANDS =      -416.29635616
  atomic energy  EATOM  =     16800.64461370
  Solvation  Ediel_sol  =         0.00000000
  ---------------------------------------------------
  free energy    TOTEN  =      -163.48848423 eV

  energy without entropy =     -163.48848423  energy(sigma->0) =     -163.48848423


--------------------------------------------------------------------------------------------------------




--------------------------------------- Iteration      1(   5)  ---------------------------------------


     EDDAV:  cpu time    5.8766: real time    5.9041
 BZINTS: Fermi energy: 10.936378;222.000000 electrons
         Band energy:-508.806600;  BLOECHL correction: -0.046430
       DOS:  cpu time    0.0166: real time    0.0166
    CHARGE:  cpu time    0.1851: real time    0.1861
    MIXING:  cpu time    0.0040: real time    0.0041
    --------------------------------------------
      LOOP:  cpu time    6.0823: real time    6.1110

 eigenvalue-minimisations  : 10472
 total energy-change (2. order) :-0.9251024E+02  (-0.8921954E+02)
 number of electron     222.0000012 magnetization      20.3531943
 augmentation part       25.9789012 magnetization      14.5151748

 Broyden mixing:
  rms(total) = 0.70351E+01    rms(broyden)= 0.70345E+01
  rms(prec ) = 0.78962E+01
  weight for this iteration     100.00

 Free energy of the ion-electron system (eV)
  ---------------------------------------------------
  alpha Z        PSCENC =       972.43652873
  Ewald energy   TEWEN  =    -15041.87837388
  -Hartree energ DENC   =     -3163.35567427
  -exchange      EXHF   =         0.00000000
  -V(xc)+E(xc)   XCENC  =       710.33274559
  PAW double counting   =     13644.53670636   -13669.90867429
  entropy T*S    EENTRO =         0.00000000
  eigenvalues    EBANDS =      -508.80659960
  atomic energy  EATOM  =     16800.64461370
  Solvation  Ediel_sol  =         0.00000000
  ---------------------------------------------------
  free energy    TOTEN  =      -255.99872767 eV

  energy without entropy =     -255.99872767  energy(sigma->0) =     -255.99872767


--------------------------------------------------------------------------------------------------------




--------------------------------------- Iteration      1(   6)  ---------------------------------------


    POTLOK:  cpu time    0.0844: real time    0.0876
    SETDIJ:  cpu time    0.0150: real time    0.0150
atom =   1  type =  1  l = 0
 
 onsite density matrix
 
spin component  1
 
  1.0559
 
spin component  2
 
  1.0562
 
 occupancies and eigenvectors
 
  o =  1.0559  v =  1.0000  0.0000      0.0000  0.0000
  o =  1.0562  v =  0.0000  1.0000      0.0000  0.0000
atom =   2  type =  1  l = 0
 
 onsite density matrix
 
spin component  1
 
  1.0559
 
spin component  2
 
  1.0562
 
 occupancies and eigenvectors
 
  o =  1.0559  v =  1.0000  0.0000      0.0000  0.0000
  o =  1.0562  v =  0.0000  1.0000      0.0000  0.0000
atom =   3  type =  1  l = 0
 
 onsite density matrix
 
spin component  1
 
  1.0565
 
spin component  2
 
  1.0567
 
 occupancies and eigenvectors
 
  o =  1.0565  v =  1.0000  0.0000      0.0000  0.0000
  o =  1.0567  v =  0.0000  1.0000      0.0000  0.0000
atom =   4  type =  1  l = 0
 
 onsite density matrix
 
spin component  1
 
  1.0559
 
spin component  2
 
  1.0562
 
 occupancies and eigenvectors
 
  o =  1.0559  v =  1.0000  0.0000      0.0000  0.0000
  o =  1.0562  v =  0.0000  1.0000      0.0000  0.0000
atom =   5  type =  1  l = 0
 
 onsite density matrix
 
spin component  1
 
  1.0559
 
spin component  2
 
  1.0562
 
 occupancies and eigenvectors
 
  o =  1.0559  v =  1.0000  0.0000      0.0000  0.0000
  o =  1.0562  v =  0.0000  1.0000      0.0000  0.0000
atom =   6  type =  1  l = 0
 
 onsite density matrix
 
spin component  1
 
  1.0565
 
spin component  2
 
  1.0567
 
 occupancies and eigenvectors
 
  o =  1.0565  v =  1.0000  0.0000      0.0000  0.0000
  o =  1.0567  v =  0.0000  1.0000      0.0000  0.0000
atom =   7  type =  2  l = 2
 
 onsite density matrix
 
spin component  1
 
  0.9502 -0.0000  0.0000  0.0000 -0.0000
 -0.0000  0.9484  0.0000  0.0000  0.0000
  0.0000  0.0000  0.4700 -0.0000 -0.0000
  0.0000  0.0000 -0.0000  0.9484  0.0000
 -0.0000  0.0000 -0.0000  0.0000  0.4298
 
spin component  2
 
  0.0277  0.0000  0.0000 -0.0000 -0.0000
  0.0000  0.0300 -0.0000  0.0000 -0.0000
  0.0000 -0.0000  0.3605  0.0000  0.0000
 -0.0000  0.0000  0.0000  0.0300 -0.0000
 -0.0000 -0.0000  0.0000 -0.0000  0.3917
 
 occupancies and eigenvectors
 
  o =  0.0277  v =  0.0000  0.0000  0.0000  0.0000  0.0000  1.0000  0.0000  0.0000  0.0000  0.0000      0.0000  0.0000  0.0000  0.0000  0.0000  0.0000  0.0000  0.0000  0.0000  0.0000
  o =  0.0300  v =  0.0000  0.0000  0.0000  0.0000  0.0000  0.0000 -0.0411 -0.0000  0.9992 -0.0000      0.0000  0.0000  0.0000  0.0000  0.0000  0.0000  0.0000  0.0000  0.0000  0.0000
  o =  0.0300  v =  0.0000  0.0000  0.0000  0.0000  0.0000  0.0000  0.9992  0.0000  0.0411  0.0000      0.0000  0.0000  0.0000  0.0000  0.0000  0.0000  0.0000  0.0000  0.0000  0.0000
  o =  0.3605  v =  0.0000  0.0000  0.0000  0.0000  0.0000  0.0000 -0.0000  1.0000  0.0000  0.0000      0.0000  0.0000  0.0000  0.0000  0.0000  0.0000  0.0000  0.0000  0.0000  0.0000
  o =  0.3917  v =  0.0000  0.0000  0.0000  0.0000  0.0000  0.0000  0.0000  0.0000  0.0000 -1.0000      0.0000  0.0000  0.0000  0.0000  0.0000  0.0000  0.0000  0.0000  0.0000  0.0000
  o =  0.4298  v =  0.0000 -0.0000  0.0000  0.0000 -1.0000  0.0000  0.0000  0.0000  0.0000  0.0000      0.0000  0.0000  0.0000  0.0000  0.0000  0.0000  0.0000  0.0000  0.0000  0.0000
  o =  0.4700  v =  0.0000 -0.0000 -1.0000 -0.0000 -0.0000  0.0000  0.0000  0.0000  0.0000  0.0000      0.0000  0.0000  0.0000  0.0000  0.0000  0.0000  0.0000  0.0000  0.0000  0.0000
  o =  0.9484  v =  0.0000  0.9837 -0.0000 -0.1798 -0.0000  0.0000  0.0000  0.0000  0.0000  0.0000      0.0000  0.0000  0.0000  0.0000  0.0000  0.0000  0.0000  0.0000  0.0000  0.0000
  o =  0.9484  v =  0.0000 -0.1798  0.0000 -0.9837  0.0000  0.0000  0.0000  0.0000  0.0000  0.0000      0.0000  0.0000  0.0000  0.0000  0.0000  0.0000  0.0000  0.0000  0.0000  0.0000
  o =  0.9502  v =  1.0000  0.0000  0.0000  0.0000  0.0000  0.0000  0.0000  0.0000  0.0000  0.0000      0.0000  0.0000  0.0000  0.0000  0.0000  0.0000  0.0000  0.0000  0.0000  0.0000
atom =   8  type =  2  l = 2
 
[...]
 -0.000  -0.001  -0.000  -0.001   0.000  -0.000  -0.001   0.000  -0.000   0.000   0.000   0.000   0.000   0.000  -0.000  -0.000
 -0.000   0.000  -0.000   0.000   0.000  -0.000   0.000   0.000   0.000   0.000   0.000  -0.000   0.000   0.000  -0.000   0.000
  0.000   0.000   0.000  -0.000   0.000  -0.000  -0.000  -0.000   0.000  -0.000  -0.000  -0.000  -0.001  -0.000   0.000   0.000
  0.000   0.000   0.000   0.000  -0.000   0.000   0.000  -0.001   0.000  -0.000  -0.000  -0.001   0.000  -0.000   0.000  -0.000
  0.000  -0.000   0.000   0.000   0.000  -0.001   0.000   0.000   0.000  -0.002   0.000  -0.000   0.000   0.000   0.000   0.000
  0.000  -0.008  -0.000  -0.000   0.000   0.000   0.001  -0.000  -0.002  -0.000   0.000   0.000  -0.000   0.000   0.000  -0.000
  0.000   0.000   0.000  -0.000   0.000  -0.001   0.000   0.000   0.000   0.001   0.000   0.000  -0.000   0.000  -0.000   0.000
  0.000   0.001  -0.000  -0.000   0.000   0.000   0.001  -0.000   0.000   0.000   0.000   0.000  -0.000  -0.000   0.000   0.000
 -0.000   0.000   0.000   0.000   0.000   0.000   0.000  -0.001  -0.000   0.000  -0.000   0.001  -0.000   0.000  -0.000  -0.000
 -0.000   0.000   0.000  -0.000  -0.000   0.000   0.000   0.000  -0.000   0.000   0.000   0.000   0.003  -0.000   0.000   0.000
  0.000   0.000  -0.000   0.000  -0.000  -0.000   0.000   0.001   0.000   0.000   0.000   0.002  -0.000   0.000  -0.000   0.000


------------------------ aborting loop because EDIFF is reached ----------------------------------------


 


 total charge     
 
# of ion       s       p       d       f       tot
--------------------------------------------------
    1        1.999   5.697   0.480   0.187   8.364
    2        1.999   5.697   0.480   0.187   8.364
    3        1.998   5.696   0.476   0.184   8.354
    4        1.999   5.697   0.483   0.186   8.364
    5        1.999   5.697   0.483   0.186   8.364
    6        1.998   5.696   0.476   0.184   8.354
    7        0.301   0.443   4.925   0.000   5.670
    8        0.350   0.558   4.853   0.000   5.761
    9        0.350   0.558   4.853   0.000   5.761
   10        0.334   0.517   4.869   0.000   5.720
   11        0.381   0.542   8.313   0.000   9.236
   12        0.381   0.542   8.313   0.000   9.236
   13        1.566   3.456   0.000   0.000   5.022
   14        1.566   3.456   0.000   0.000   5.022
   15        1.560   3.455   0.000   0.000   5.014
   16        1.559   3.454   0.000   0.000   5.013
   17        1.559   3.454   0.000   0.000   5.013
   18        1.560   3.455   0.000   0.000   5.015
   19        1.560   3.458   0.000   0.000   5.018
   20        1.564   3.460   0.000   0.000   5.024
   21        1.560   3.459   0.000   0.000   5.019
   22        1.560   3.459   0.000   0.000   5.019
   23        1.564   3.459   0.000   0.000   5.023
   24        1.560   3.458   0.000   0.000   5.018
   25        1.560   3.458   0.000   0.000   5.018
   26        1.564   3.457   0.000   0.000   5.021
   27        1.560   3.454   0.000   0.000   5.015
   28        1.560   3.454   0.000   0.000   5.014
   29        1.564   3.457   0.000   0.000   5.022
   30        1.560   3.458   0.000   0.000   5.018
--------------------------------------------------
tot         42.197  99.562  39.003   1.115 181.877

 


 magnetization (x)
 
# of ion       s       p       d       f       tot
--------------------------------------------------
    1        0.001   0.001   0.010   0.006   0.017
    2        0.001   0.001   0.010   0.006   0.017
    3        0.001   0.001   0.008   0.003   0.013
    4        0.001   0.001   0.011   0.005   0.017
    5        0.001   0.001   0.011   0.005   0.017
    6        0.001   0.001   0.008   0.003   0.013
    7        0.024   0.022   3.938   0.000   3.984
    8        0.026   0.039   3.324   0.000   3.389
    9        0.026   0.039   3.324   0.000   3.390
   10        0.026   0.030   3.560   0.000   3.616
   11        0.006  -0.006   1.702   0.000   1.702
   12        0.006  -0.006   1.702   0.000   1.702
   13        0.006  -0.044   0.000   0.000  -0.037
   14        0.006  -0.044   0.000   0.000  -0.037
   15        0.005   0.000   0.000   0.000   0.006
   16        0.004  -0.010   0.000   0.000  -0.006
   17        0.004  -0.010   0.000   0.000  -0.006
   18        0.005   0.000   0.000   0.000   0.006
   19        0.005  -0.009   0.000   0.000  -0.004
   20        0.005  -0.035   0.000   0.000  -0.029
   21        0.005  -0.007   0.000   0.000  -0.003
   22        0.005  -0.007   0.000   0.000  -0.003
   23        0.006  -0.035   0.000   0.000  -0.030
   24        0.005  -0.009   0.000   0.000  -0.004
   25        0.004  -0.009   0.000   0.000  -0.004
   26        0.005  -0.037   0.000   0.000  -0.032
   27        0.005  -0.013   0.000   0.000  -0.008
   28        0.005  -0.013   0.000   0.000  -0.008
   29        0.005  -0.037   0.000   0.000  -0.031
   30        0.004  -0.009   0.000   0.000  -0.004
--------------------------------------------------
tot          0.209  -0.202  17.607   0.028  17.641

 
    CHARGE:  cpu time    0.1813: real time    0.1818
    FORLOC:  cpu time    0.0118: real time    0.0119
    FORNL :  cpu time    1.1007: real time    1.1059
    STRESS:  cpu time    3.2756: real time    3.2886
    FORCOR:  cpu time    0.0974: real time    0.0978
    FORHAR:  cpu time    0.0202: real time    0.0203
    MIXING:  cpu time    0.0056: real time    0.0056
    OFIELD:  cpu time    0.0001: real time    0.0002

  FORCE on cell =-STRESS in cart. coord.  units (eV):
  Direction    XX          YY          ZZ          XY          YZ          ZX
  --------------------------------------------------------------------------------------
  Alpha Z   972.43653   972.43653   972.43653
  Ewald   -4984.68329 -4984.68329 -5072.56550     0.00000     0.00000    -0.00003
  Hartree  1108.48369  1108.48366  1038.23648    -0.00000     0.00000     0.00003
  E(xc)   -1025.55466 -1025.55465 -1025.51502     0.00000     0.00000    -0.00001
  Local    -651.43176  -651.43184  -495.86983     0.00000     0.00000    -0.00043
  n-local   402.72512   402.45485   402.18450     1.88490    -0.05974     0.05737
  augment   344.11033   344.11135   344.99668    -0.00000     0.00000     0.00042
  Kinetic  3832.59996  3833.92737  3834.82152    13.42076     0.18005    -0.16429
  Fock        0.00000     0.00000     0.00000     0.00000     0.00000     0.00000
  -------------------------------------------------------------------------------------
  Total      -0.78505    -0.78505    -1.27464     0.00000     0.00000     0.00000
  in kB      -3.52572    -3.52572    -5.72452     0.00000     0.00000     0.00000
  external pressure =       -4.26 kB  Pullay stress =        0.00 kB


 VOLUME and BASIS-vectors are now :
 -----------------------------------------------------------------------------
  energy-cutoff  :      520.00
  volume of cell :      356.75
      direct lattice vectors                 reciprocal lattice vectors
     3.898719134 -3.898719134  0.000000000     0.128247248 -0.128247248  0.042607301
     3.898719134  3.898719134  0.000000000     0.128247248  0.128247248  0.042607301
    -3.898719134  0.000000000 11.735077924     0.000000000  0.000000000  0.085214602

  length of vectors
     5.513621475  5.513621475 12.365761795     0.186306456  0.186306456  0.085214602


 FORCES acting on ions
    electron-ion (+dipol)            ewald-force                    non-local-force                 convergence-correction
 -----------------------------------------------------------------------------------------------
   -.407E-03 0.184E-04 -.886E+02   -.895E-04 -.136E-04 0.881E+02   -.867E-18 0.260E-17 0.424E+00   -.252E-05 0.118E-06 0.476E-01
   0.407E-03 -.184E-04 0.886E+02   0.895E-04 0.136E-04 -.881E+02   0.867E-18 -.130E-17 -.424E+00   0.252E-05 -.118E-06 -.476E-01
   0.197E-11 -.169E-04 -.167E-11   -.202E-13 0.112E-04 -.568E-13   0.000E+00 -.163E-18 0.000E+00   0.504E-13 0.744E-07 0.598E-12
   -.407E-03 -.184E-04 -.886E+02   -.895E-04 0.136E-04 0.881E+02   -.173E-17 -.260E-17 0.424E+00   -.252E-05 -.118E-06 0.476E-01
   0.407E-03 0.184E-04 0.886E+02   0.895E-04 -.136E-04 -.881E+02   0.000E+00 0.347E-17 -.424E+00   0.252E-05 0.118E-06 -.476E-01
   -.978E-13 0.169E-04 0.541E-12   0.361E-13 -.112E-04 -.711E-13   -.217E-18 0.108E-18 0.000E+00   -.121E-13 -.744E-07 0.569E-12
   -.440E-13 0.554E-12 0.670E-12   0.231E-13 -.415E-14 0.142E-13   -.762E-20 -.678E-20 0.000E+00   -.129E-13 0.225E-13 -.439E-12
   0.329E-04 -.107E-12 0.224E+02   0.247E-04 0.313E-13 -.221E+02   0.520E-17 0.000E+00 -.270E+00   -.228E-06 0.778E-14 -.357E-01
   -.329E-04 -.333E-12 -.224E+02   -.247E-04 0.537E-14 0.221E+02   -.434E-17 0.000E+00 0.270E+00   0.228E-06 -.133E-13 0.357E-01
   0.821E-13 0.183E-12 0.251E-12   0.136E-12 -.438E-13 -.711E-14   0.678E-20 0.000E+00 0.000E+00   0.479E-14 0.357E-15 -.440E-12
   0.374E-04 -.592E-12 0.307E+02   0.205E-04 0.664E-14 -.305E+02   -.173E-17 -.806E-18 -.173E+00   -.577E-07 -.682E-13 -.321E-01
   -.374E-04 0.725E-12 -.307E+02   -.205E-04 0.568E-13 0.305E+02   0.130E-17 0.413E-18 0.173E+00   0.577E-07 0.555E-13 0.321E-01
   0.491E-03 -.141E-11 0.558E+02   -.390E-04 0.190E-13 -.587E+02   -.555E-16 0.000E+00 0.300E+01   0.630E-06 0.267E-13 -.163E-01
   -.491E-03 0.426E-12 -.558E+02   0.390E-04 -.764E-14 0.587E+02   0.347E-16 -.694E-17 -.300E+01   -.630E-06 0.255E-13 0.163E-01
   0.202E-04 0.179E-11 -.364E+02   -.103E-04 0.688E-14 0.324E+02   -.111E-15 0.000E+00 0.394E+01   -.119E-06 -.330E-13 0.289E-01
   0.514E-03 0.944E-12 0.708E+02   -.630E-04 -.207E-13 -.669E+02   0.416E-16 0.000E+00 -.389E+01   0.112E-06 -.179E-13 -.234E-01
   -.514E-03 -.803E-13 -.708E+02   0.630E-04 0.106E-13 0.669E+02   -.416E-16 0.000E+00 0.389E+01   -.112E-06 0.244E-13 0.234E-01
   -.202E-04 -.110E-11 0.364E+02   0.103E-04 -.134E-13 -.324E+02   0.111E-15 0.000E+00 -.394E+01   0.119E-06 0.362E-13 -.289E-01
   -.467E-03 -.322E+02 0.184E+02   -.586E-04 0.274E+02 -.182E+02   0.954E-17 0.482E+01 -.169E+00   0.933E-07 0.304E-01 -.196E-01
   -.150E-12 -.129E+02 0.444E-12   -.172E-12 0.137E+02 -.497E-13   -.894E-18 -.679E+00 0.000E+00   0.658E-14 0.282E-01 -.387E-12
   0.467E-03 -.322E+02 -.184E+02   0.586E-04 0.274E+02 0.182E+02   0.507E-16 0.482E+01 0.169E+00   -.933E-07 0.304E-01 0.196E-01
   -.467E-03 0.322E+02 0.184E+02   -.586E-04 -.274E+02 -.182E+02   -.334E-16 -.482E+01 -.169E+00   0.933E-07 -.304E-01 -.196E-01
   0.145E-11 0.129E+02 0.292E-11   -.175E-12 -.137E+02 -.355E-13   -.119E-17 0.679E+00 0.000E+00   -.924E-14 -.282E-01 -.385E-12
   0.467E-03 0.322E+02 -.184E+02   0.586E-04 -.274E+02 0.182E+02   0.139E-16 -.482E+01 0.169E+00   -.933E-07 -.304E-01 0.196E-01
   -.322E+02 0.171E-12 0.184E+02   0.274E+02 -.205E-14 -.182E+02   0.482E+01 0.000E+00 -.169E+00   0.304E-01 0.197E-13 -.196E-01
   -.129E+02 0.175E-11 -.354E-05   0.137E+02 0.103E-13 0.458E-06   -.679E+00 0.000E+00 0.000E+00   0.282E-01 0.147E-13 -.931E-08
   -.322E+02 0.155E-11 -.184E+02   0.274E+02 0.579E-14 0.182E+02   0.482E+01 0.000E+00 0.169E+00   0.304E-01 -.219E-13 0.196E-01
   0.322E+02 0.320E-13 0.184E+02   -.274E+02 -.119E-14 -.182E+02   -.482E+01 0.000E+00 -.169E+00   -.304E-01 0.286E-13 -.196E-01
   0.129E+02 0.871E-12 0.354E-05   -.137E+02 0.215E-13 -.458E-06   0.679E+00 0.000E+00 0.000E+00   -.282E-01 -.749E-14 0.931E-08
   0.322E+02 -.192E-11 -.184E+02   -.274E+02 -.892E-15 0.182E+02   -.482E+01 0.000E+00 0.169E+00   -.304E-01 -.212E-14 0.196E-01
 -----------------------------------------------------------------------------------------------
   0.205E-10 0.617E-11 0.133E-10   -.284E-13 0.264E-13 0.142E-13   0.266E-14 -.888E-15 0.000E+00   0.246E-12 0.203E-12 0.240E-12
 
 
 POSITION                                       TOTAL-FORCE (eV/Angst)
 -----------------------------------------------------------------------------------
      0.00000      0.00000      3.86347         0.000000     -0.000000      0.051442
     -0.00000      0.00000      7.87161         0.000000     -0.000000     -0.051442
      3.89872      0.00000      0.00000         0.000000     -0.000000     -0.000000
      3.89872      0.00000      3.86347         0.000000     -0.000000      0.051442
      3.89872      0.00000      7.87161         0.000000     -0.000000     -0.051442
      0.00000      0.00000      0.00000         0.000000     -0.000000     -0.000000
      1.94936     -1.94936      5.86754         0.000000     -0.000000     -0.000000
      1.94936     -1.94936      9.79340         0.000000     -0.000000     -0.028838
      1.94936     -1.94936      1.94168         0.000000     -0.000000      0.028838
      1.94936      1.94936      5.86754         0.000000     -0.000000     -0.000000
      1.94936      1.94936      9.77560         0.000000     -0.000000     -0.002433
      1.94936      1.94936      1.95948         0.000000     -0.000000      0.002433
      1.94936     -1.94936      7.86648         0.000000     -0.000000      0.087185
      1.94936     -1.94936      3.86860         0.000000     -0.000000     -0.087185
      1.94936     -1.94936      0.01462         0.000000     -0.000000      0.022493
      1.94936      1.94936      7.79404         0.000000     -0.000000     -0.028107
      1.94936      1.94936      3.94103         0.000000     -0.000000      0.028107
      1.94936     -1.94936     11.72046         0.000000     -0.000000     -0.022493
     -1.94936      0.03607      9.77031         0.000000      0.031405      0.022709
      1.94936      3.88855      5.86754         0.000000      0.062836     -0.000000
      5.84808      0.03607      1.96477         0.000000      0.031405     -0.022709
      1.94936     -0.03607      9.77031         0.000000     -0.031405      0.022709
      1.94936      0.01017      5.86754         0.000000     -0.062836     -0.000000
      1.94936     -0.03607      1.96477         0.000000     -0.031405     -0.022709
      0.03607     -1.94936      9.77031         0.031405     -0.000000      0.022709
      3.88855      1.94936      5.86754         0.062836     -0.000000     -0.000000
      3.93479      1.94936      1.96477         0.031405     -0.000000     -0.022709
     -0.03607      1.94936      9.77031        -0.031405     -0.000000      0.022709
      0.01017      1.94936      5.86754        -0.062836     -0.000000     -0.000000
      3.86265     -1.94936      1.96477        -0.031405     -0.000000     -0.022709
 -----------------------------------------------------------------------------------
    total drift:                                0.000000      0.000000      0.000000


--------------------------------------------------------------------------------------------------------



  FREE ENERGIE OF THE ION-ELECTRON SYSTEM (eV)
  ---------------------------------------------------
  free  energy   TOTEN  =      -226.91807420 eV

  energy  without entropy=     -226.91807420  energy(sigma->0) =     -226.91807420
 


--------------------------------------------------------------------------------------------------------


    POTLOK:  cpu time    0.0991: real time    0.0993


--------------------------------------------------------------------------------------------------------


     LOOP+:  cpu time   97.9243: real time   98.3533
    4ORBIT:  cpu time    0.0000: real time    0.0000
 


 total charge     
 
# of ion       s       p       d       f       tot
--------------------------------------------------
    1        1.999   5.697   0.480   0.187   8.364
    2        1.999   5.697   0.480   0.187   8.364
    3        1.998   5.696   0.476   0.184   8.354
    4        1.999   5.697   0.483   0.186   8.364
    5        1.999   5.697   0.483   0.186   8.364
    6        1.998   5.696   0.476   0.184   8.354
    7        0.301   0.443   4.925   0.000   5.670
    8        0.350   0.558   4.853   0.000   5.761
    9        0.350   0.558   4.853   0.000   5.761
   10        0.334   0.517   4.869   0.000   5.720
   11        0.381   0.542   8.313   0.000   9.236
   12        0.381   0.542   8.313   0.000   9.236
   13        1.566   3.456   0.000   0.000   5.022
   14        1.566   3.456   0.000   0.000   5.022
   15        1.560   3.455   0.000   0.000   5.014
   16        1.559   3.454   0.000   0.000   5.013
   17        1.559   3.454   0.000   0.000   5.013
   18        1.560   3.455   0.000   0.000   5.015
   19        1.560   3.458   0.000   0.000   5.018
   20        1.564   3.460   0.000   0.000   5.024
   21        1.560   3.459   0.000   0.000   5.019
   22        1.560   3.459   0.000   0.000   5.019
   23        1.564   3.459   0.000   0.000   5.023
   24        1.560   3.458   0.000   0.000   5.018
   25        1.560   3.458   0.000   0.000   5.018
   26        1.564   3.457   0.000   0.000   5.021
   27        1.560   3.454   0.000   0.000   5.015
   28        1.560   3.454   0.000   0.000   5.014
   29        1.564   3.457   0.000   0.000   5.022
   30        1.560   3.458   0.000   0.000   5.018
--------------------------------------------------
tot         42.197  99.562  39.003   1.115 181.877

 


 magnetization (x)
 
# of ion       s       p       d       f       tot
--------------------------------------------------
    1        0.001   0.001   0.010   0.006   0.017
    2        0.001   0.001   0.010   0.006   0.017
    3        0.001   0.001   0.008   0.003   0.013
    4        0.001   0.001   0.011   0.005   0.017
    5        0.001   0.001   0.011   0.005   0.017
    6        0.001   0.001   0.008   0.003   0.013
    7        0.024   0.022   3.938   0.000   3.984
    8        0.026   0.039   3.324   0.000   3.389
    9        0.026   0.039   3.324   0.000   3.390
   10        0.026   0.030   3.560   0.000   3.616
   11        0.006  -0.006   1.702   0.000   1.702
   12        0.006  -0.006   1.702   0.000   1.702
   13        0.006  -0.044   0.000   0.000  -0.037
   14        0.006  -0.044   0.000   0.000  -0.037
   15        0.005   0.000   0.000   0.000   0.006
   16        0.004  -0.010   0.000   0.000  -0.006
   17        0.004  -0.010   0.000   0.000  -0.006
   18        0.005   0.000   0.000   0.000   0.006
   19        0.005  -0.009   0.000   0.000  -0.004
   20        0.005  -0.035   0.000   0.000  -0.029
   21        0.005  -0.007   0.000   0.000  -0.003
   22        0.005  -0.007   0.000   0.000  -0.003
   23        0.006  -0.035   0.000   0.000  -0.030
   24        0.005  -0.009   0.000   0.000  -0.004
   25        0.004  -0.009   0.000   0.000  -0.004
   26        0.005  -0.037   0.000   0.000  -0.032
   27        0.005  -0.013   0.000   0.000  -0.008
   28        0.005  -0.013   0.000   0.000  -0.008
   29        0.005  -0.037   0.000   0.000  -0.031
   30        0.004  -0.009   0.000   0.000  -0.004
--------------------------------------------------
tot          0.209  -0.202  17.607   0.028  17.641

 
 BZINTS: Fermi energy:  8.289007;222.000000 electrons
         Band energy:-378.943061;  BLOECHL correction: -0.050118

 total amount of memory used by VASP MPI-rank0    74020. kBytes
=======================================================================

   base      :      30000. kBytes
   nonlr-proj:       7524. kBytes
   fftplans  :       3228. kBytes
   grid      :       9428. kBytes
   one-center:        294. kBytes
   wavefun   :      23546. kBytes
 
  
  
 General timing and accounting informations for this job:
 ========================================================
  
                  Total CPU time used (sec):      106.376
                            User time (sec):      103.375
                          System time (sec):        3.001
                         Elapsed time (sec):      106.968
  
                   Maximum memory used (kb):      112752.
                   Average memory used (kb):           0.
  
                          Minor page faults:        47008
                          Major page faults:            0
                 Voluntary context switches:         1230
