       N       E                     dE             d eps       ncg     rms          rms(c)
DAV:   1     0.357064044900E+04    0.35706E+04   -0.78543E+04  7512   0.245E+03
DAV:   2     0.124126160078E+04   -0.23294E+04   -0.20966E+04  7752   0.636E+02
DAV:   3     0.266162230881E+03   -0.97510E+03   -0.87402E+03  7912   0.327E+02
DAV:   4    -0.158638404900E+03   -0.42480E+03   -0.39918E+03 11200   0.181E+02
DAV:   5    -0.249665126174E+03   -0.91027E+02   -0.87392E+02 12788   0.984E+01    0.758E+01
RMM:   6    -0.223459619956E+03    0.26206E+02   -0.70620E+02 11683   0.104E+02    0.102E+02
RMM:   7    -0.223382793197E+03    0.76827E-01   -0.13539E+02 12394   0.347E+01    0.443E+01
RMM:   8    -0.217229785893E+03    0.61530E+01   -0.58389E+01  9207   0.382E+01    0.239E+01
RMM:   9    -0.219822455159E+03   -0.25927E+01   -0.28645E+01 11541   0.156E+01    0.184E+01
RMM:  10    -0.220196916847E+03   -0.37446E+00   -0.60301E+00 12568   0.721E+00    0.123E+01
RMM:  11    -0.220203511375E+03   -0.65945E-02   -0.28450E+00 12631   0.460E+00    0.616E+00
RMM:  12    -0.220249632086E+03   -0.46121E-01   -0.14332E+00 12651   0.334E+00    0.512E+00
RMM:  13    -0.220296587396E+03   -0.46955E-01   -0.60530E-01 12507   0.191E+00    0.285E+00
RMM:  14    -0.220318562391E+03   -0.21975E-01   -0.19084E-01 12104   0.127E+00    0.201E+00
RMM:  15    -0.220328238490E+03   -0.96761E-02   -0.98955E-02 11189   0.805E-01    0.108E+00
RMM:  16    -0.220328600014E+03   -0.36152E-03   -0.41597E-02 10460   0.590E-01    0.648E-01
RMM:  17    -0.220329639699E+03   -0.10397E-02   -0.31010E-02  9817   0.489E-01    0.329E-01
RMM:  18    -0.220330887932E+03   -0.12482E-02   -0.14672E-02  8034   0.401E-01    0.123E-01
RMM:  19    -0.220331647995E+03   -0.76006E-03   -0.82635E-03  6940   0.330E-01
   1 F= -.22033165E+03 E0= -.22033165E+03  d E =0.000000E+00  mag=    14.9986
