 vasp.5.4.4.18Apr17-6-g9f103f2a35 (build Oct 03 2018 13:58:34) complex          
  
 executed on             LinuxIFC date 2019.06.04  01:15:00
 running on   40 total cores
 distrk:  each k-point on   20 cores,    2 groups
 distr:  one band on NCORES_PER_BAND=  10 cores,    2 groups


--------------------------------------------------------------------------------------------------------


 INCAR:
 POTCAR:    PAW_PBE La 06Sep2000                  
 POTCAR:    PAW_PBE Mn 06Sep2000                  
 POTCAR:    PAW_PBE Ni 02Aug2007                  
 POTCAR:    PAW_PBE O 08Apr2002                   

 ----------------------------------------------------------------------------- 
|                                                                             |
|           W    W    AA    RRRRR   N    N  II  N    N   GGGG   !!!           |
|           W    W   A  A   R    R  NN   N  II  NN   N  G    G  !!!           |
|           W    W  A    A  R    R  N N  N  II  N N  N  G       !!!           |
|           W WW W  AAAAAA  RRRRR   N  N N  II  N  N N  G  GGG   !            |
|           WW  WW  A    A  R   R   N   NN  II  N   NN  G    G                |
|           W    W  A    A  R    R  N    N  II  N    N   GGGG   !!!           |
|                                                                             |
|      You have enabled k-point parallelism (KPAR>1).                         |
|      This developmental code was originally  written by Paul Kent at ORNL,  |
|      and carefully double checked in Vienna.                                |
|      GW as well as linear response parallelism added by Martijn Marsman     |
|      and Georg Kresse.                                                      |
|      Carefully verify results versus KPAR=1.                                |
|      Report problems to Paul Kent and Vienna.                               |
|                                                                             |
 ----------------------------------------------------------------------------- 

 POTCAR:    PAW_PBE La 06Sep2000                  
   VRHFIN =La : [core=Kr4d]                                                     
   LEXCH  = PE                                                                  
   EATOM  =   865.9763 eV,   63.6475 Ry                                         
                                                                                
   TITEL  = PAW_PBE La 06Sep2000                                                
   LULTRA =        F    use ultrasoft PP ?                                      
   IUNSCR =        1    unscreen: 0-lin 1-nonlin 2-no                           
   RPACOR =    2.300    partial core radius                                     
   POMASS =  138.900; ZVAL   =   11.000    mass and valenz                      
   RCORE  =    2.800    outmost cutoff radius                                   
   RWIGS  =    2.900; RWIGS  =    1.535    wigner-seitz radius (au A)           
   ENMAX  =  219.292; ENMIN  =  164.469 eV                                      
   RCLOC  =    1.601    cutoff for local pot                                    
   LCOR   =        T    correct aug charges                                     
   LPAW   =        T    paw PP                                                  
   EAUG   =  583.575                                                            
   DEXC   =    0.000                                                            
   RMAX   =    2.853    core radius for proj-oper                               
   RAUG   =    1.300    factor for augmentation sphere                          
   RDEP   =    2.802    radius for radial grids                                 
   RDEPT  =    2.156    core radius for aug-charge                              
                                                                                
   Atomic configuration                                                         
   14 entries                                                                   
     n  l   j            E        occ.                                          
     1  0  0.50    -38741.0879   2.0000                                         
     2  0  0.50     -6166.6801   2.0000                                         
     2  1  1.50     -5526.1593   6.0000                                         
     3  0  0.50     -1319.0200   2.0000                                         
     3  1  1.50     -1114.5963   6.0000                                         
     3  2  2.50      -821.1793  10.0000                                         
     4  0  0.50      -266.3851   2.0000                                         
     4  1  1.50      -199.9276   6.0000                                         
     4  2  2.50      -103.8239  10.0000                                         
     5  0  0.50       -38.9172   2.0000                                         
     6  0  0.50        -3.6792   2.0000                                         
     5  1  1.50       -22.3948   6.0000                                         
     5  2  2.50        -3.0911   0.9999                                         
     4  3  2.50        -4.3603   0.0001                                         
   Description                                                                  
     l       E           TYP  RCUT    TYP  RCUT                                 
     0    -38.9171645     23  2.800                                             
     0     -3.6792381     23  2.800                                             
     1    -22.3948300     23  2.500                                             
     1     27.2116520     23  2.500                                             
     2     -3.0910934     23  2.500                                             
     2      1.0119135     23  2.500                                             
     3     -4.3602911     23  2.800                                             
     3     -5.7208737     23  2.800                                             
  local pseudopotential read in
  partial core-charges read in
  partial kinetic energy density read in
  atomic valenz-charges read in
  non local Contribution for L=           0  read in
    real space projection operators read in
  non local Contribution for L=           0  read in
    real space projection operators read in
  non local Contribution for L=           1  read in
    real space projection operators read in
  non local Contribution for L=           1  read in
    real space projection operators read in
  non local Contribution for L=           2  read in
    real space projection operators read in
  non local Contribution for L=           2  read in
    real space projection operators read in
  non local Contribution for L=           3  read in
    real space projection operators read in
  non local Contribution for L=           3  read in
    real space projection operators read in
    PAW grid and wavefunctions read in
 
   number of l-projection  operators is LMAX  =           8
   number of lm-projection operators is LMMAX =          32
 
 POTCAR:    PAW_PBE Mn 06Sep2000                  
   VRHFIN =Mn: d6 s1                                                            
   LEXCH  = PE                                                                  
   EATOM  =   416.7541 eV,   30.6306 Ry                                         
                                                                                
   TITEL  = PAW_PBE Mn 06Sep2000                                                
   LULTRA =        F    use ultrasoft PP ?                                      
   IUNSCR =        1    unscreen: 0-lin 1-nonlin 2-no                           
   RPACOR =    2.000    partial core radius                                     
   POMASS =   54.938; ZVAL   =    7.000    mass and valenz                      
   RCORE  =    2.300    outmost cutoff radius                                   
   RWIGS  =    2.500; RWIGS  =    1.323    wigner-seitz radius (au A)           
   ENMAX  =  269.864; ENMIN  =  202.398 eV                                      
   RCLOC  =    1.725    cutoff for local pot                                    
   LCOR   =        T    correct aug charges                                     
   LPAW   =        T    paw PP                                                  
   EAUG   =  500.711                                                            
   DEXC   =    0.000                                                            
   RMAX   =    2.343    core radius for proj-oper                               
   RAUG   =    1.300    factor for augmentation sphere                          
   RDEP   =    2.338    radius for radial grids                                 
   RDEPT  =    1.911    core radius for aug-charge                              
                                                                                
   Atomic configuration                                                         
    9 entries                                                                   
     n  l   j            E        occ.                                          
     1  0  0.50     -6424.8288   2.0000                                         
     2  0  0.50      -739.1154   2.0000                                         
     2  1  1.50      -625.3949   6.0000                                         
     3  0  0.50       -81.6100   2.0000                                         
     3  1  1.50       -50.4667   6.0000                                         
     3  2  2.50        -3.3745   6.0000                                         
     4  0  0.50        -4.1331   1.0000                                         
     4  1  0.50        -4.0817   0.0000                                         
     4  3  2.50        -1.3606   0.0000                                         
   Description                                                                  
     l       E           TYP  RCUT    TYP  RCUT                                 
     2     -3.3744664     23  2.300                                             
     2     -4.7350490     23  2.300                                             
     0     -4.1331408     23  2.300                                             
     0      7.6656614     23  2.300                                             
     1     -2.7211652     23  2.300                                             
     1     20.4087390     23  2.300                                             
  local pseudopotential read in
  partial core-charges read in
  partial kinetic energy density read in
  atomic valenz-charges read in
  non local Contribution for L=           2  read in
    real space projection operators read in
  non local Contribution for L=           2  read in
    real space projection operators read in
  non local Contribution for L=           0  read in
    real space projection operators read in
  non local Contribution for L=           0  read in
    real space projection operators read in
  non local Contribution for L=           1  read in
    real space projection operators read in
  non local Contribution for L=           1  read in
    real space projection operators read in
    PAW grid and wavefunctions read in
 
   number of l-projection  operators is LMAX  =           6
   number of lm-projection operators is LMMAX =          18
 
 POTCAR:    PAW_PBE Ni 02Aug2007                  
   VRHFIN =Ni:                                                                  
   LEXCH  = PE                                                                  
   EATOM  =  1077.6739 eV,   79.2068 Ry                                         
                                                                                
   TITEL  = PAW_PBE Ni 02Aug2007                                                
   LULTRA =        F    use ultrasoft PP ?                                      
   IUNSCR =        1    unscreen: 0-lin 1-nonlin 2-no                           
   RPACOR =    2.000    partial core radius                                     
   POMASS =   58.690; ZVAL   =   10.000    mass and valenz                      
   RCORE  =    2.300    outmost cutoff radius                                   
   RWIGS  =    2.430; RWIGS  =    1.286    wigner-seitz radius (au A)           
   ENMAX  =  269.532; ENMIN  =  202.149 eV                                      
   RCLOC  =    1.201    cutoff for local pot                                    
   LCOR   =        T    correct aug charges                                     
   LPAW   =        T    paw PP                                                  
   EAUG   =  544.565                                                            
   DEXC   =    0.000                                                            
   RMAX   =    2.357    core radius for proj-oper                               
   RAUG   =    1.300    factor for augmentation sphere                          
   RDEP   =    2.390    radius for radial grids                                 
   RDEPT  =    1.838    core radius for aug-charge                              
                                                                                
   Atomic configuration                                                         
    9 entries                                                                   
     n  l   j            E        occ.                                          
     1  0  0.50     -8206.4253   2.0000                                         
     2  0  0.50      -976.1748   2.0000                                         
     2  1  1.50      -839.0571   6.0000                                         
     3  0  0.50      -105.9991   2.0000                                         
     3  1  1.50       -66.4603   6.0000                                         
     3  2  2.50        -4.6458   9.0000                                         
     4  0  0.50        -4.4926   1.0000                                         
     4  1  1.50        -4.0817   0.0000                                         
     4  3  2.50        -1.3606   0.0000                                         
   Description                                                                  
     l       E           TYP  RCUT    TYP  RCUT                                 
     2     -4.6457903     23  2.300                                             
     2     -6.0063729     23  2.300                                             
     0     -4.4925590     23  2.300                                             
     0      5.0102601     23  2.300                                             
     1     -2.7211652     23  2.300                                             
     1     16.5183231     23  2.300                                             
  local pseudopotential read in
  partial core-charges read in
  partial kinetic energy density read in
  atomic valenz-charges read in
  non local Contribution for L=           2  read in
    real space projection operators read in
  non local Contribution for L=           2  read in
    real space projection operators read in
  non local Contribution for L=           0  read in
    real space projection operators read in
  non local Contribution for L=           0  read in
    real space projection operators read in
  non local Contribution for L=           1  read in
    real space projection operators read in
  non local Contribution for L=           1  read in
    real space projection operators read in
    PAW grid and wavefunctions read in
 
   number of l-projection  operators is LMAX  =           6
   number of lm-projection operators is LMMAX =          18
 
 POTCAR:    PAW_PBE O 08Apr2002                   
   VRHFIN =O: s2p4                                                              
   LEXCH  = PE                                                                  
   EATOM  =   432.3788 eV,   31.7789 Ry                                         
                                                                                
   TITEL  = PAW_PBE O 08Apr2002                                                 
   LULTRA =        F    use ultrasoft PP ?                                      
   IUNSCR =        1    unscreen: 0-lin 1-nonlin 2-no                           
   RPACOR =    1.200    partial core radius                                     
   POMASS =   16.000; ZVAL   =    6.000    mass and valenz                      
   RCORE  =    1.520    outmost cutoff radius                                   
   RWIGS  =    1.550; RWIGS  =    0.820    wigner-seitz radius (au A)           
   ENMAX  =  400.000; ENMIN  =  300.000 eV                                      
   ICORE  =        2    local potential                                         
   LCOR   =        T    correct aug charges                                     
   LPAW   =        T    paw PP                                                  
   EAUG   =  605.392                                                            
   DEXC   =    0.000                                                            
   RMAX   =    1.553    core radius for proj-oper                               
   RAUG   =    1.300    factor for augmentation sphere                          
   RDEP   =    1.550    radius for radial grids                                 
   RDEPT  =    1.329    core radius for aug-charge                              
                                                                                
   Atomic configuration                                                         
    4 entries                                                                   
     n  l   j            E        occ.                                          
     1  0  0.50      -514.6923   2.0000                                         
     2  0  0.50       -23.9615   2.0000                                         
     2  1  0.50        -9.0305   4.0000                                         
     3  2  1.50        -9.5241   0.0000                                         
   Description                                                                  
     l       E           TYP  RCUT    TYP  RCUT                                 
     0    -23.9615318     23  1.200                                             
     0     -9.5240782     23  1.200                                             
     1     -9.0304911     23  1.520                                             
     1      8.1634956     23  1.520                                             
     2     -9.5240782      7  1.500                                             
  local pseudopotential read in
  partial core-charges read in
  partial kinetic energy density read in
  kinetic energy density of atom read in
  atomic valenz-charges read in
  non local Contribution for L=           0  read in
    real space projection operators read in
  non local Contribution for L=           0  read in
    real space projection operators read in
  non local Contribution for L=           1  read in
    real space projection operators read in
  non local Contribution for L=           1  read in
    real space projection operators read in
    PAW grid and wavefunctions read in
 
   number of l-projection  operators is LMAX  =           4
   number of lm-projection operators is LMMAX =           8
 
 Optimization of the real space projectors (new method)

 maximal supplied QI-value         = 13.42
 optimisation between [QCUT,QGAM] = [ 11.67, 23.35] = [ 38.16,152.62] Ry 
 Optimized for a Real-space Cutoff    1.63 Angstroem

   l    n(q)    QCUT    max X(q) W(low)/X(q) W(high)/X(q)  e(spline) 
   0     11    11.673    13.882    0.27E-04    0.79E-05    0.11E-06
   0     11    11.673    12.184    0.39E-04    0.13E-04    0.19E-06
   1     11    11.673     4.523    0.73E-05    0.76E-05    0.12E-06
   1     11    11.673     4.424    0.87E-05    0.13E-04    0.19E-06
   2     10    11.673    52.481    0.65E-04    0.36E-04    0.18E-06
   2     10    11.673    38.501    0.61E-04    0.33E-04    0.17E-06
   3     10    11.673    65.631    0.17E-03    0.14E-03    0.37E-06
   3     10    11.673    56.854    0.17E-03    0.14E-03    0.37E-06
 Optimization of the real space projectors (new method)

 maximal supplied QI-value         = 16.25
 optimisation between [QCUT,QGAM] = [ 11.54, 23.24] = [ 37.28,151.24] Ry 
 Optimized for a Real-space Cutoff    1.53 Angstroem

   l    n(q)    QCUT    max X(q) W(low)/X(q) W(high)/X(q)  e(spline) 
   2     10    11.539   110.144    0.12E-03    0.13E-03    0.25E-06
   2     10    11.539   103.200    0.12E-03    0.13E-03    0.25E-06
   0     11    11.539    68.437    0.46E-04    0.21E-04    0.32E-06
   0     11    11.539    33.971    0.37E-04    0.19E-04    0.29E-06
   1     10    11.539    17.065    0.51E-04    0.22E-04    0.13E-06
   1     10    11.539    12.540    0.41E-04    0.18E-04    0.11E-06
 Optimization of the real space projectors (new method)

 maximal supplied QI-value         = 16.25
 optimisation between [QCUT,QGAM] = [ 11.54, 23.24] = [ 37.28,151.24] Ry 
 Optimized for a Real-space Cutoff    1.45 Angstroem

   l    n(q)    QCUT    max X(q) W(low)/X(q) W(high)/X(q)  e(spline) 
   2      9    11.539    60.317    0.19E-03    0.47E-04    0.16E-06
   2      9    11.539    55.921    0.19E-03    0.48E-04    0.16E-06
   0     10    11.539    51.690    0.80E-04    0.50E-04    0.24E-06
   0     10    11.539    30.015    0.73E-04    0.45E-04    0.22E-06
   1     10    11.539    18.849    0.87E-04    0.16E-03    0.71E-07
   1     10    11.539    14.624    0.73E-04    0.13E-03    0.64E-07
 Optimization of the real space projectors (new method)

 maximal supplied QI-value         = 24.76
 optimisation between [QCUT,QGAM] = [ 11.64, 23.27] = [ 37.91,151.63] Ry 
 Optimized for a Real-space Cutoff    1.14 Angstroem

   l    n(q)    QCUT    max X(q) W(low)/X(q) W(high)/X(q)  e(spline) 
   0      8    11.635    20.381    0.10E-03    0.33E-03    0.24E-06
   0      8    11.635    15.268    0.11E-03    0.35E-03    0.26E-06
   1      7    11.635     5.964    0.24E-03    0.31E-03    0.30E-06
   1      7    11.635     5.382    0.22E-03    0.25E-03    0.26E-06
  PAW_PBE La 06Sep2000                  :
 energy of atom  1       EATOM= -865.9763
 kinetic energy error for atom=    0.0009 (will be added to EATOM!!)
  PAW_PBE Mn 06Sep2000                  :
 energy of atom  2       EATOM= -416.7541
 kinetic energy error for atom=    0.0024 (will be added to EATOM!!)
  PAW_PBE Ni 02Aug2007                  :
 energy of atom  3       EATOM=-1077.6739
 kinetic energy error for atom=    0.0030 (will be added to EATOM!!)
  PAW_PBE O 08Apr2002                   :
 energy of atom  4       EATOM= -432.3788
 kinetic energy error for atom=    0.0208 (will be added to EATOM!!)
 
 
 POSCAR: SCEL6_1_3_2_1_0_0/3                     
  positions in direct lattice
  velocities in cartesian coordinates
 exchange correlation table for  LEXCH =        8
   RHO(1)=    0.500       N(1)  =     2000
   RHO(2)=  100.500       N(2)  =     4000
 


--------------------------------------------------------------------------------------------------------


 ion  position               nearest neighbor table
   1  0.000  0.666  0.178-  28 2.65  22 2.68  22 2.68  17 2.71  17 2.71  29 2.75  30 2.76  23 2.82
                            23 2.82  10 3.28  10 3.28  12 3.36  12 3.36  11 3.37  11 3.37   3 3.66
   2  0.000  0.334  0.322-  30 2.65  22 2.68  22 2.68  18 2.71  18 2.71  29 2.75  28 2.76  21 2.82
                            21 2.82  12 3.28  12 3.28  10 3.36  10 3.36  11 3.37  11 3.37   6 3.66
   3  0.000  0.989  0.485-  29 2.62  17 2.63  17 2.63  28 2.64  21 2.72  21 2.72  20 2.78  20 2.78
                            11 3.26  11 3.26  10 3.30  10 3.30   9 3.43   9 3.43   1 3.66
   4  0.000  0.666  0.658-  28 2.63  16 2.68  16 2.68  20 2.69  20 2.69  27 2.72  26 2.75  14 2.78
                            14 2.78  19 2.79  19 2.79  25 2.82  10 3.27  10 3.27   7 3.37   7 3.37
   5  0.000  0.334  0.842-  30 2.63  13 2.68  13 2.68  24 2.69  24 2.69  25 2.72  26 2.75  15 2.78
                            15 2.78  19 2.79  19 2.79  27 2.82  12 3.27  12 3.27   7 3.37   7 3.37
   6  0.000  0.011  0.015-  29 2.62  18 2.63  18 2.63  30 2.64  23 2.72  23 2.72  24 2.78  24 2.78
                            11 3.26  11 3.26  12 3.30  12 3.30   8 3.43   8 3.43   2 3.66
   7  0.500  0.000  0.750-  20 1.90  24 1.90  14 1.92  15 1.92  26 1.94  26 1.94   4 3.37   4 3.37
                             5 3.37   5 3.37
   8  0.500  0.668  0.917-  23 1.87  13 1.89  25 1.94  25 1.94  14 1.94  19 1.96   5 3.37   5 3.37
                             6 3.43   6 3.43
   9  0.500  0.332  0.583-  21 1.87  16 1.89  27 1.94  27 1.94  15 1.94  19 1.96   4 3.37   4 3.37
                             3 3.43   3 3.43
  10  0.500  0.666  0.418-  28 1.94  28 1.94  22 1.96  17 1.97  16 1.98  20 1.98   4 3.27   4 3.27
                             1 3.28   1 3.28   3 3.30   3 3.30   2 3.36   2 3.36
  11  0.500  0.000  0.250-  17 1.92  18 1.92  29 1.94  29 1.94  23 2.02  21 2.02   3 3.26   3 3.26
                             6 3.26   6 3.26   2 3.37   2 3.37   1 3.37   1 3.37
  12  0.500  0.334  0.082-  30 1.94  30 1.94  22 1.96  18 1.97  13 1.98  24 1.98   5 3.27   5 3.27
                             2 3.28   2 3.28   6 3.30   6 3.30   1 3.36   1 3.36
  13  0.500  0.502  0.995-   8 1.89  12 1.98   5 2.68   5 2.68
  14  0.500  0.832  0.831-   7 1.92   8 1.94   4 2.78   4 2.78
  15  0.500  0.168  0.669-   7 1.92   9 1.94   5 2.78   5 2.78
  16  0.500  0.498  0.505-   9 1.89  10 1.98   4 2.68   4 2.68
  17  0.500  0.836  0.335-  11 1.92  10 1.97   3 2.63   3 2.63   1 2.71   1 2.71
  18  0.500  0.164  0.165-  11 1.92  12 1.97   6 2.63   6 2.63   2 2.71   2 2.71
  19  0.500  0.500  0.750-   8 1.96   9 1.96   4 2.79   5 2.79   4 2.79   5 2.79
  20  0.500  0.836  0.588-   7 1.90  10 1.98   4 2.69   4 2.69   3 2.78   3 2.78
  21  0.500  0.172  0.423-   9 1.87  11 2.02   3 2.72   3 2.72   2 2.82   2 2.82
  22  0.500  0.500  0.250-  10 1.96  12 1.96   1 2.68   2 2.68   1 2.68   2 2.68
  23  0.500  0.828  0.077-   8 1.87  11 2.02   6 2.72   6 2.72   1 2.82   1 2.82
  24  0.500  0.164  0.912-   7 1.90  12 1.98   5 2.69   5 2.69   6 2.78   6 2.78
  25  0.000  0.664  0.914-   8 1.94   8 1.94   5 2.72   4 2.82
  26  0.000  0.000  0.750-   7 1.94   7 1.94   4 2.75   5 2.75
  27  0.000  0.336  0.586-   9 1.94   9 1.94   4 2.72   5 2.82
  28  0.000  0.669  0.419-  10 1.94  10 1.94   4 2.63   3 2.64   1 2.65   2 2.76
  29  0.000  0.000  0.250-  11 1.94  11 1.94   3 2.62   6 2.62   1 2.75   2 2.75
  30  0.000  0.331  0.081-  12 1.94  12 1.94   5 2.63   6 2.64   2 2.65   1 2.76
 
  LATTYP: Found a simple monoclinic cell.
 ALAT       =    11.6959329354
 B/A-ratio  =     0.3316641760
 C/A-ratio  =     1.4878076186
 COS(beta)  =    -0.8954084677
  
  Lattice vectors:
  
 A1 = (   0.0000000000, -11.6959286559,   0.0100052477)
 A2 = (   3.8791219597,   0.0000000000,   0.0000000000)
 A3 = (   0.0000000000,  15.5878918661,   7.7345202634)


Analysis of symmetry for initial positions (statically):
=====================================================================
 Subroutine PRICEL returns:
 Original cell was already a primitive cell.
 

 Routine SETGRP: Setting up the symmetry group for a 
 simple monoclinic supercell.


 Subroutine GETGRP returns: Found  4 space group operations
 (whereof  2 operations were pure point group operations)
 out of a pool of  4 trial point group operations.


The static configuration has the point symmetry C_1h.
 The point group associated with its full space group is C_2h.


Analysis of symmetry for dynamics (positions and initial velocities):
=====================================================================
 Subroutine PRICEL returns:
 Original cell was already a primitive cell.
 

 Routine SETGRP: Setting up the symmetry group for a 
 simple monoclinic supercell.


 Subroutine GETGRP returns: Found  4 space group operations
 (whereof  2 operations were pure point group operations)
 out of a pool of  4 trial point group operations.


The dynamic configuration has the point symmetry C_1h.
 The point group associated with its full space group is C_2h.


Analysis of structural, dynamic, and magnetic symmetry:
=====================================================================
 Subroutine PRICEL returns:
 Original cell was already a primitive cell.
 

 Routine SETGRP: Setting up the symmetry group for a 
 simple monoclinic supercell.


 Subroutine GETGRP returns: Found  4 space group operations
 (whereof  2 operations were pure point group operations)
 out of a pool of  4 trial point group operations.


The magnetic configuration has the point symmetry C_1h.
 The point group associated with its full space group is C_2h.


 Subroutine INISYM returns: Found  4 space group operations
 (whereof  2 operations are pure point group operations),
 and found     1 'primitive' translations

 
 
 KPOINTS: Automatic mesh                          

Automatic generation of k-mesh.
 generate k-points for:    5    2    2
Space group operators:
 irot       det(A)        alpha          n_x          n_y          n_z        tau_x        tau_y        tau_z
    1     1.000000     0.000000     1.000000     0.000000     0.000000     0.000000     0.000000     0.000000
    2    -1.000000   180.000000     1.000000     0.000000     0.000000     0.000000     0.000000     0.000000
    3    -1.000000     0.000000     1.000000     0.000000     0.000000     0.000000     1.000000     0.500000
    4     1.000000   180.000000     1.000000     0.000000     0.000000     0.000000     1.000000     0.500000
 
 Subroutine IBZKPT returns following result:
 ===========================================
 
 Found     12 irreducible k-points:
 
 Following reciprocal coordinates:
            Coordinates               Weight
  0.000000  0.000000  0.000000      1.000000
  0.200000  0.000000  0.000000      2.000000
  0.400000  0.000000  0.000000      2.000000
  0.000000  0.500000  0.000000      1.000000
  0.200000  0.500000  0.000000      2.000000
  0.400000  0.500000  0.000000      2.000000
  0.000000 -0.000000  0.500000      1.000000
  0.200000 -0.000000  0.500000      2.000000
  0.400000 -0.000000  0.500000      2.000000
  0.000000  0.500000  0.500000      1.000000
  0.200000  0.500000  0.500000      2.000000
  0.400000  0.500000  0.500000      2.000000
 
 Following cartesian coordinates:
            Coordinates               Weight
  0.000000  0.000000  0.000000      1.000000
 -0.051558  0.000000  0.000000      2.000000
 -0.103116  0.000000  0.000000      2.000000
  0.000000  0.042787  0.043060      1.000000
 -0.051558  0.042787  0.043060      2.000000
 -0.103116  0.042787  0.043060      2.000000
  0.000000  0.042732 -0.021474      1.000000
 -0.051558  0.042732 -0.021474      2.000000
 -0.103116  0.042732 -0.021474      2.000000
  0.000000  0.085518  0.021585      1.000000
 -0.051558  0.085518  0.021585      2.000000
 -0.103116  0.085518  0.021585      2.000000
 
 TETIRR: Found     60 inequivalent tetrahedra from      120


--------------------------------------------------------------------------------------------------------




 Dimension of arrays:
   k-points           NKPTS =     12   k-points in BZ     NKDIM =     12   number of bands    NBANDS=    146
   number of dos      NEDOS =    301   number of ions     NIONS =     30
   non local maximal  LDIM  =      8   non local SUM 2l+1 LMDIM =     32
   total plane-waves  NPLWV = 161280
   max r-space proj   IRMAX =   8330   max aug-charges    IRDMAX=  24171
   dimension x,y,z NGX =    30 NGY =   64 NGZ =   84
   dimension x,y,z NGXF=    60 NGYF=  128 NGZF=  168
   support grid    NGXF=    60 NGYF=  128 NGZF=  168
   ions per type =               6   3   3  18
   NGX,Y,Z   is equivalent  to a cutoff of  12.86, 12.28, 12.69 a.u.
   NGXF,Y,Z  is equivalent  to a cutoff of  25.71, 24.55, 25.39 a.u.

 SYSTEM =  final                                   
 POSCAR =  SCEL6_1_3_2_1_0_0/3                     

 Startparameter for this run:
   NWRITE =      2    write-flag & timer
   PREC   = accura    normal or accurate (medium, high low for compatibility)
   ISTART =      0    job   : 0-new  1-cont  2-samecut
   ICHARG =      1    charge: 1-file 2-atom 10-const
   ISPIN  =      2    spin polarized calculation?
   LNONCOLLINEAR =      F non collinear calculations
   LSORBIT =      F    spin-orbit coupling
   INIWAV =      1    electr: 0-lowe 1-rand  2-diag
   LASPH  =      F    aspherical Exc in radial PAW
   METAGGA=      F    non-selfconsistent MetaGGA calc.

 Electronic Relaxation 1
   ENCUT  =  520.0 eV  38.22 Ry    6.18 a.u.   7.21 16.12 20.46*2*pi/ulx,y,z
   ENINI  =  520.0     initial cutoff
   ENAUG  =  605.4 eV  augmentation charge cutoff
   NELM   =    100;   NELMIN=  2; NELMDL= -5     # of ELM steps 
   EDIFF  = 0.1E-02   stopping-criterion for ELM
   LREAL  =      T    real-space projection
   NLSPLINE    = F    spline interpolate recip. space projectors
   LCOMPAT=      F    compatible to vasp.4.4
   GGA_COMPAT  = T    GGA compatible to vasp.4.4-vasp.4.6
   LMAXPAW     = -100 max onsite density
   LMAXMIX     =    6 max onsite mixed and CHGCAR
   VOSKOWN=      0    Vosko Wilk Nusair interpolation
   ROPT   =   -0.00025  -0.00025  -0.00025  -0.00025
 Ionic relaxation
   EDIFFG = 0.1E-01   stopping-criterion for IOM
   NSW    =      0    number of steps for IOM
   NBLOCK =      1;   KBLOCK =      1    inner block; outer block 
   IBRION =     -1    ionic relax: 0-MD 1-quasi-New 2-CG
   NFREE  =      0    steps in history (QN), initial steepest desc. (CG)
   ISIF   =      2    stress and relaxation
   IWAVPR =     10    prediction:  0-non 1-charg 2-wave 3-comb
   ISYM   =      2    0-nonsym 1-usesym 2-fastsym
   LCORR  =      T    Harris-Foulkes like correction to forces

   POTIM  = 0.5000    time-step for ionic-motion
   TEIN   =    0.0    initial temperature
   TEBEG  =    0.0;   TEEND  =   0.0 temperature during run
   SMASS  =  -3.00    Nose mass-parameter (am)
   estimated Nose-frequenzy (Omega)   =  0.10E-29 period in steps =****** mass=  -0.344E-27a.u.
   SCALEE = 1.0000    scale energy and forces
   NPACO  =    256;   APACO  = 16.0  distance and # of slots for P.C.
   PSTRESS=    0.0 pullay stress

  Mass of Ions in am
   POMASS = 138.90 54.94 58.69 16.00
  Ionic Valenz
   ZVAL   =  11.00  7.00 10.00  6.00
  Atomic Wigner-Seitz radii
   RWIGS  =  -1.00 -1.00 -1.00 -1.00
  virtual crystal weights 
   VCA    =   1.00  1.00  1.00  1.00
   NELECT =     225.0000    total number of electrons
   NUPDOWN=      -1.0000    fix difference up-down

 DOS related values:
   EMIN   =  10.00;   EMAX   =-10.00  energy-range for DOS
   EFERMI =   0.00
   ISMEAR =    -5;   SIGMA  =   0.05  broadening in eV -4-tet -1-fermi 0-gaus

 Electronic relaxation 2 (details)
   IALGO  =     68    algorithm
   LDIAG  =      T    sub-space diagonalisation (order eigenvalues)
   LSUBROT=      F    optimize rotation matrix (better conditioning)
   TURBO    =      0    0=normal 1=particle mesh
   IRESTART =      0    0=no restart 2=restart with 2 vectors
   NREBOOT  =      0    no. of reboots
   NMIN     =      0    reboot dimension
   EREF     =   0.00    reference energy to select bands
   IMIX   =      4    mixing-type and parameters
     AMIX     =   0.40;   BMIX     =  1.00
     AMIX_MAG =   1.60;   BMIX_MAG =  1.00
     AMIN     =   0.10
     WC   =   100.;   INIMIX=   1;  MIXPRE=   1;  MAXMIX= -45

 Intra band minimization:
   WEIMIN = 0.0000     energy-eigenvalue tresh-hold
   EBREAK =  0.17E-05  absolut break condition
   DEPER  =   0.30     relativ break condition  

   TIME   =   0.40     timestep for ELM

  volume/ion in A,a.u.               =      11.72        79.07
  Fermi-wavevector in a.u.,A,eV,Ry     =   1.410866  2.666150 27.082983  1.990543
  Thomas-Fermi vector in A             =   2.532776
 
 Write flags
   LWAVE        =      F    write WAVECAR
   LDOWNSAMPLE  =      F    k-point downsampling of WAVECAR
   LCHARG       =      T    write CHGCAR
   LVTOT        =      F    write LOCPOT, total local potential
   LVHAR        =      F    write LOCPOT, Hartree potential only
   LELF         =      F    write electronic localiz. function (ELF)
   LORBIT       =     11    0 simple, 1 ext, 2 COOP (PROOUT), +10 PAW based schemes


 Dipole corrections
   LMONO  =      F    monopole corrections only (constant potential shift)
   LDIPOL =      F    correct potential (dipole corrections)
   IDIPOL =      0    1-x, 2-y, 3-z, 4-all directions 
   EPSILON=  1.0000000 bulk dielectric constant

 LDA+U is selected, type is set to LDAUTYPE =  2
   angular momentum for each species LDAUL =     0    2    2    0
   U (eV)           for each species LDAUU =   0.0  3.9  6.2  0.0
   J (eV)           for each species LDAUJ =   0.0  0.0  0.0  0.0
 Exchange correlation treatment:
   GGA     =    --    GGA type
   LEXCH   =     8    internal setting for exchange type
   VOSKOWN=      0    Vosko Wilk Nusair interpolation
   LHFCALC =     F    Hartree Fock is set to
   LHFONE  =     F    Hartree Fock one center treatment
   AEXX    =    0.0000 exact exchange contribution

 Linear response parameters
   LEPSILON=     F    determine dielectric tensor
   LRPA    =     F    only Hartree local field effects (RPA)
   LNABLA  =     F    use nabla operator in PAW spheres
   LVEL    =     F    velocity operator in full k-point grid
   LINTERFAST=   F  fast interpolation
   KINTER  =     0    interpolate to denser k-point grid
   CSHIFT  =0.1000    complex shift for real part using Kramers Kronig
   OMEGAMAX=  -1.0    maximum frequency
   DEG_THRESHOLD= 0.2000000E-02 threshold for treating states as degnerate
   RTIME   =   -0.100 relaxation time in fs
  (WPLASMAI=    0.000 imaginary part of plasma frequency in eV, 0.658/RTIME)
   DFIELD  = 0.0000000 0.0000000 0.0000000 field for delta impulse in time
 
 Orbital magnetization related:
   ORBITALMAG=     F  switch on orbital magnetization
   LCHIMAG   =     F  perturbation theory with respect to B field
   DQ        =  0.001000  dq finite difference perturbation B field
   LLRAUG    =     F  two centre corrections for induced B field



--------------------------------------------------------------------------------------------------------


 Static calculation
 charge density and potential will be updated during run
 spin polarized calculation
 RMM-DIIS sequential band-by-band and
  variant of blocked Davidson during initial phase
 perform sub-space diagonalisation
    before iterative eigenvector-optimisation
 modified Broyden-mixing scheme, WC =      100.0
 initial mixing is a Kerker type mixing with AMIX =  0.4000 and BMIX =      1.0000
 Hartree-type preconditioning will be used
 using additional bands           33
 real space projection scheme for non local part
 use partial core corrections
 calculate Harris-corrections to forces 
   (improved forces if not selfconsistent)
 use gradient corrections 
 use of overlap-Matrix (Vanderbilt PP)
 Fermi weights with tetrahedron method with Bloechl corrections


--------------------------------------------------------------------------------------------------------


  energy-cutoff  :      520.00
  volume of cell :      351.52
      direct lattice vectors                 reciprocal lattice vectors
    -3.879121960  0.000000000  0.000000000    -0.257790296  0.000000000  0.000000000
     0.000000000  3.891963210  7.744525511     0.000000000  0.085573508  0.086119034
     0.000000000  7.803965446 -7.754530759     0.000000000  0.085463097 -0.042948949

  length of vectors
     3.879121960  8.667470970 11.001573704     0.257790296  0.121405573  0.095648069


 
 k-points in units of 2pi/SCALE and weight: Automatic mesh                          
   0.00000000  0.00000000  0.00000000       0.050
  -0.05155806  0.00000000  0.00000000       0.100
  -0.10311612  0.00000000  0.00000000       0.100
   0.00000000  0.04278675  0.04305952       0.050
  -0.05155806  0.04278675  0.04305952       0.100
  -0.10311612  0.04278675  0.04305952       0.100
   0.00000000  0.04273155 -0.02147447       0.050
  -0.05155806  0.04273155 -0.02147447       0.100
  -0.10311612  0.04273155 -0.02147447       0.100
   0.00000000  0.08551830  0.02158504       0.050
  -0.05155806  0.08551830  0.02158504       0.100
  -0.10311612  0.08551830  0.02158504       0.100
 
 k-points in reciprocal lattice and weights: Automatic mesh                          
   0.00000000  0.00000000  0.00000000       0.050
   0.20000000  0.00000000  0.00000000       0.100
   0.40000000  0.00000000  0.00000000       0.100
   0.00000000  0.50000000  0.00000000       0.050
   0.20000000  0.50000000  0.00000000       0.100
   0.40000000  0.50000000  0.00000000       0.100
   0.00000000 -0.00000000  0.50000000       0.050
   0.20000000 -0.00000000  0.50000000       0.100
   0.40000000 -0.00000000  0.50000000       0.100
   0.00000000  0.50000000  0.50000000       0.050
   0.20000000  0.50000000  0.50000000       0.100
   0.40000000  0.50000000  0.50000000       0.100
 
 position of ions in fractional coordinates (direct lattice) 
   0.00000000  0.66603843  0.17773240
   0.00000000  0.33396157  0.32226760
   0.00000000  0.98916122  0.48532857
   0.00000000  0.66623133  0.65804995
   0.00000000  0.33376867  0.84195005
   0.00000000  0.01083878  0.01467143
   0.50000000  0.00000000  0.75000000
   0.50000000  0.66809947  0.91698190
   0.50000000  0.33190053  0.58301810
   0.50000000  0.66613162  0.41827387
   0.50000000  0.00000000  0.25000000
   0.50000000  0.33386838  0.08172613
   0.50000000  0.50193793  0.99475496
   0.50000000  0.83245344  0.83056211
   0.50000000  0.16754656  0.66943789
   0.50000000  0.49806207  0.50524504
   0.50000000  0.83635886  0.33451703
   0.50000000  0.16364114  0.16548297
   0.50000000  0.50000000  0.75000000
   0.50000000  0.83562996  0.58803013
   0.50000000  0.17184336  0.42285335
   0.50000000  0.50000000  0.25000000
   0.50000000  0.82815664  0.07714665
   0.50000000  0.16437004  0.91196987
   0.00000000  0.66410432  0.91373464
   0.00000000  0.00000000  0.75000000
   0.00000000  0.33589568  0.58626536
   0.00000000  0.66861518  0.41934457
   0.00000000  0.00000000  0.25000000
   0.00000000  0.33138482  0.08065543
 
 position of ions in cartesian coordinates  (Angst):
   0.00000000  3.97921453  3.77992027
   0.00000000  3.81473140  0.08733986
   0.00000000  7.63726650  3.89708895
   0.00000000  7.72834694  0.05677693
   0.00000000  7.86956444 -3.94404756
   0.00000000  0.15667943 -0.02982882
  -1.93956098  5.85297408 -5.81589807
  -1.93956098  9.75631366 -1.93665100
  -1.93956098  5.84159772 -1.95061963
  -1.93956098  5.85675458  1.91535580
  -1.93956098  1.95099136 -1.93863269
  -1.93956098  1.93719136  1.95190433
  -1.93956098  9.71655727 -3.82658687
  -1.93956098  9.72155619  0.00633746
  -1.93956098  5.87635519 -3.89360809
  -1.93956098  5.88135410 -0.06068376
  -1.93956098  5.86563724  3.88318000
  -1.93956098  1.92830869 -0.01591987
  -1.93956098  7.79895569 -1.94363531
  -1.93956098  7.84120785  1.91165986
  -1.93956098  3.96874094 -1.94818400
  -1.93956098  3.89697297  1.93363007
  -1.93956098  3.82520499  5.81544413
  -1.93956098  7.75670353 -5.79893048
   0.00000000  9.71542311 -1.94241050
   0.00000000  5.85297408 -5.81589807
   0.00000000  5.88248827 -1.94486013
   0.00000000  5.87477626  1.92628694
   0.00000000  1.95099136 -1.93863269
   0.00000000  1.91916967  1.94097319
 


--------------------------------------------------------------------------------------------------------


 k-point  1 :   0.0000 0.0000 0.0000  plane waves:    9457
 k-point  2 :   0.2000 0.0000 0.0000  plane waves:    9467
 k-point  3 :   0.4000 0.0000 0.0000  plane waves:    9478
 k-point  4 :   0.0000 0.5000 0.0000  plane waves:    9448
 k-point  5 :   0.2000 0.5000 0.0000  plane waves:    9466
 k-point  6 :   0.4000 0.5000 0.0000  plane waves:    9494
 k-point  7 :   0.0000-0.0000 0.5000  plane waves:    9464
 k-point  8 :   0.2000-0.0000 0.5000  plane waves:    9444
 k-point  9 :   0.4000-0.0000 0.5000  plane waves:    9470
 k-point 10 :   0.0000 0.5000 0.5000  plane waves:    9458
 k-point 11 :   0.2000 0.5000 0.5000  plane waves:    9458
 k-point 12 :   0.4000 0.5000 0.5000  plane waves:    9478

 maximum and minimum number of plane-waves per node :       967      922

 maximum number of plane-waves:      9494
 maximum index in each direction: 
   IXMAX=    7   IYMAX=   16   IZMAX=   20
   IXMIN=   -7   IYMIN=  -16   IZMIN=  -20


 real space projection operators:
  total allocation   :      20386.91 KBytes
  max/ min on nodes  :       2124.69       1988.34


 parallel 3D FFT for wavefunctions:
    minimum data exchange during FFTs selected (reduces bandwidth)
 parallel 3D FFT for charge:
    minimum data exchange during FFTs selected (reduces bandwidth)


 total amount of memory used by VASP MPI-rank0    75865. kBytes
=======================================================================

   base      :      30000. kBytes
   nonlr-proj:       6855. kBytes
   fftplans  :       2686. kBytes
   grid      :       7550. kBytes
   one-center:        294. kBytes
   wavefun   :      28480. kBytes
 
     INWAV:  cpu time    0.0000: real time    0.0001
 Broyden mixing: mesh for mixing (old mesh)
   NGX = 15   NGY = 33   NGZ = 41
  (NGX  = 60   NGY  =128   NGZ  =168)
  gives a total of  20295 points

 initial charge density was supplied:
 charge density of overlapping atoms calculated
 number of electron     225.0000000 magnetization      21.0000000
 keeping initial charge density in first step


--------------------------------------------------------------------------------------------------------


 Maximum index for non-local projection operator          830
 Maximum index for augmentation-charges          985 (set IRDMAX)


--------------------------------------------------------------------------------------------------------


 First call to EWALD:  gamma=   0.251
 Maximum number of real-space cells 5x 2x 2
 Maximum number of reciprocal cells 2x 3x 4

    FEWALD:  cpu time    0.0016: real time    0.0016


--------------------------------------- Iteration      1(   1)  ---------------------------------------


    POTLOK:  cpu time    0.1039: real time    0.1048
    SETDIJ:  cpu time    0.0141: real time    0.0142
atom =   1  type =  1  l = 0
 
 onsite density matrix
 
spin component  1
 
  1.0989
 
spin component  2
 
  1.0989
 
 occupancies and eigenvectors
 
  o =  1.0989  v =  1.0000  0.0000      0.0000  0.0000
  o =  1.0989  v =  0.0000  1.0000      0.0000  0.0000
atom =   2  type =  1  l = 0
 
 onsite density matrix
 
spin component  1
 
  1.0989
 
spin component  2
 
  1.0989
 
 occupancies and eigenvectors
 
  o =  1.0989  v =  1.0000  0.0000      0.0000  0.0000
  o =  1.0989  v =  0.0000  1.0000      0.0000  0.0000
atom =   3  type =  1  l = 0
 
 onsite density matrix
 
spin component  1
 
  1.0989
 
spin component  2
 
  1.0989
 
 occupancies and eigenvectors
 
  o =  1.0989  v =  1.0000  0.0000      0.0000  0.0000
  o =  1.0989  v =  0.0000  1.0000      0.0000  0.0000
atom =   4  type =  1  l = 0
 
 onsite density matrix
 
spin component  1
 
  1.0989
 
spin component  2
 
  1.0989
 
 occupancies and eigenvectors
 
  o =  1.0989  v =  1.0000  0.0000      0.0000  0.0000
  o =  1.0989  v =  0.0000  1.0000      0.0000  0.0000
atom =   5  type =  1  l = 0
 
 onsite density matrix
 
spin component  1
 
  1.0989
 
spin component  2
 
  1.0989
 
 occupancies and eigenvectors
 
  o =  1.0989  v =  1.0000  0.0000      0.0000  0.0000
  o =  1.0989  v =  0.0000  1.0000      0.0000  0.0000
atom =   6  type =  1  l = 0
 
 onsite density matrix
 
spin component  1
 
  1.0989
 
spin component  2
 
  1.0989
 
 occupancies and eigenvectors
 
  o =  1.0989  v =  1.0000  0.0000      0.0000  0.0000
  o =  1.0989  v =  0.0000  1.0000      0.0000  0.0000
atom =   7  type =  2  l = 2
 
 onsite density matrix
 
spin component  1
 
  0.8272  0.0000  0.0000  0.0000  0.0000
  0.0000  0.8272  0.0000  0.0000  0.0000
  0.0000  0.0000  0.8272  0.0000  0.0000
  0.0000  0.0000  0.0000  0.8272  0.0000
  0.0000  0.0000  0.0000  0.0000  0.8272
 
spin component  2
 
  0.2256  0.0000  0.0000  0.0000  0.0000
  0.0000  0.2256  0.0000  0.0000  0.0000
  0.0000  0.0000  0.2256  0.0000  0.0000
  0.0000  0.0000  0.0000  0.2256  0.0000
  0.0000  0.0000  0.0000  0.0000  0.2256
 
 occupancies and eigenvectors
 
  o =  0.2256  v =  0.0000  0.0000  0.0000  0.0000  0.0000  0.0000  0.0000  1.0000  0.0000  0.0000      0.0000  0.0000  0.0000  0.0000  0.0000  0.0000  0.0000  0.0000  0.0000  0.0000
  o =  0.2256  v =  0.0000  0.0000  0.0000  0.0000  0.0000  1.0000  0.0000  0.0000  0.0000  0.0000      0.0000  0.0000  0.0000  0.0000  0.0000  0.0000  0.0000  0.0000  0.0000  0.0000
  o =  0.2256  v =  0.0000  0.0000  0.0000  0.0000  0.0000  0.0000  1.0000  0.0000  0.0000  0.0000      0.0000  0.0000  0.0000  0.0000  0.0000  0.0000  0.0000  0.0000  0.0000  0.0000
  o =  0.2256  v =  0.0000  0.0000  0.0000  0.0000  0.0000  0.0000  0.0000  0.0000  1.0000  0.0000      0.0000  0.0000  0.0000  0.0000  0.0000  0.0000  0.0000  0.0000  0.0000  0.0000
  o =  0.2256  v =  0.0000  0.0000  0.0000  0.0000  0.0000  0.0000  0.0000  0.0000  0.0000  1.0000      0.0000  0.0000  0.0000  0.0000  0.0000  0.0000  0.0000  0.0000  0.0000  0.0000
  o =  0.8272  v =  0.0000  1.0000  0.0000  0.0000  0.0000  0.0000  0.0000  0.0000  0.0000  0.0000      0.0000  0.0000  0.0000  0.0000  0.0000  0.0000  0.0000  0.0000  0.0000  0.0000
  o =  0.8272  v =  0.0000  0.0000  1.0000  0.0000  0.0000  0.0000  0.0000  0.0000  0.0000  0.0000      0.0000  0.0000  0.0000  0.0000  0.0000  0.0000  0.0000  0.0000  0.0000  0.0000
  o =  0.8272  v =  1.0000  0.0000  0.0000  0.0000  0.0000  0.0000  0.0000  0.0000  0.0000  0.0000      0.0000  0.0000  0.0000  0.0000  0.0000  0.0000  0.0000  0.0000  0.0000  0.0000
  o =  0.8272  v =  0.0000  0.0000  0.0000  1.0000  0.0000  0.0000  0.0000  0.0000  0.0000  0.0000      0.0000  0.0000  0.0000  0.0000  0.0000  0.0000  0.0000  0.0000  0.0000  0.0000
  o =  0.8272  v =  0.0000  0.0000  0.0000  0.0000  1.0000  0.0000  0.0000  0.0000  0.0000  0.0000      0.0000  0.0000  0.0000  0.0000  0.0000  0.0000  0.0000  0.0000  0.0000  0.0000
atom =   8  type =  2  l = 2
 
 onsite density matrix
 
spin component  1
 
  0.8272  0.0000  0.0000  0.0000  0.0000
  0.0000  0.8272  0.0000  0.0000  0.0000
  0.0000  0.0000  0.8272  0.0000  0.0000
  0.0000  0.0000  0.0000  0.8272  0.0000
  0.0000  0.0000  0.0000  0.0000  0.8272
 
spin component  2
 
  0.2256  0.0000  0.0000  0.0000  0.0000
  0.0000  0.2256  0.0000  0.0000  0.0000
  0.0000  0.0000  0.2256  0.0000  0.0000
  0.0000  0.0000  0.0000  0.2256  0.0000
  0.0000  0.0000  0.0000  0.0000  0.2256
 
 occupancies and eigenvectors
 
  o =  0.2256  v =  0.0000  0.0000  0.0000  0.0000  0.0000  0.0000  0.0000  1.0000  0.0000  0.0000      0.0000  0.0000  0.0000  0.0000  0.0000  0.0000  0.0000  0.0000  0.0000  0.0000
  o =  0.2256  v =  0.0000  0.0000  0.0000  0.0000  0.0000  1.0000  0.0000  0.0000  0.0000  0.0000      0.0000  0.0000  0.0000  0.0000  0.0000  0.0000  0.0000  0.0000  0.0000  0.0000
  o =  0.2256  v =  0.0000  0.0000  0.0000  0.0000  0.0000  0.0000  1.0000  0.0000  0.0000  0.0000      0.0000  0.0000  0.0000  0.0000  0.0000  0.0000  0.0000  0.0000  0.0000  0.0000
  o =  0.2256  v =  0.0000  0.0000  0.0000  0.0000  0.0000  0.0000  0.0000  0.0000  1.0000  0.0000      0.0000  0.0000  0.0000  0.0000  0.0000  0.0000  0.0000  0.0000  0.0000  0.0000
  o =  0.2256  v =  0.0000  0.0000  0.0000  0.0000  0.0000  0.0000  0.0000  0.0000  0.0000  1.0000      0.0000  0.0000  0.0000  0.0000  0.0000  0.0000  0.0000  0.0000  0.0000  0.0000
  o =  0.8272  v =  0.0000  1.0000  0.0000  0.0000  0.0000  0.0000  0.0000  0.0000  0.0000  0.0000      0.0000  0.0000  0.0000  0.0000  0.0000  0.0000  0.0000  0.0000  0.0000  0.0000
  o =  0.8272  v =  0.0000  0.0000  1.0000  0.0000  0.0000  0.0000  0.0000  0.0000  0.0000  0.0000      0.0000  0.0000  0.0000  0.0000  0.0000  0.0000  0.0000  0.0000  0.0000  0.0000
  o =  0.8272  v =  1.0000  0.0000  0.0000  0.0000  0.0000  0.0000  0.0000  0.0000  0.0000  0.0000      0.0000  0.0000  0.0000  0.0000  0.0000  0.0000  0.0000  0.0000  0.0000  0.0000
  o =  0.8272  v =  0.0000  0.0000  0.0000  1.0000  0.0000  0.0000  0.0000  0.0000  0.0000  0.0000      0.0000  0.0000  0.0000  0.0000  0.0000  0.0000  0.0000  0.0000  0.0000  0.0000
  o =  0.8272  v =  0.0000  0.0000  0.0000  0.0000  1.0000  0.0000  0.0000  0.0000  0.0000  0.0000      0.0000  0.0000  0.0000  0.0000  0.0000  0.0000  0.0000  0.0000  0.0000  0.0000
atom =   9  type =  2  l = 2
 
 onsite density matrix
 
spin component  1
 
  0.8272  0.0000  0.0000  0.0000  0.0000
  0.0000  0.8272  0.0000  0.0000  0.0000
  0.0000  0.0000  0.8272  0.0000  0.0000
  0.0000  0.0000  0.0000  0.8272  0.0000
  0.0000  0.0000  0.0000  0.0000  0.8272
 
spin component  2
 
  0.2256  0.0000  0.0000  0.0000  0.0000
  0.0000  0.2256  0.0000  0.0000  0.0000
  0.0000  0.0000  0.2256  0.0000  0.0000
  0.0000  0.0000  0.0000  0.2256  0.0000
  0.0000  0.0000  0.0000  0.0000  0.2256
 
 occupancies and eigenvectors
 
  o =  0.2256  v =  0.0000  0.0000  0.0000  0.0000  0.0000  0.0000  0.0000  1.0000  0.0000  0.0000      0.0000  0.0000  0.0000  0.0000  0.0000  0.0000  0.0000  0.0000  0.0000  0.0000
  o =  0.2256  v =  0.0000  0.0000  0.0000  0.0000  0.0000  1.0000  0.0000  0.0000  0.0000  0.0000      0.0000  0.0000  0.0000  0.0000  0.0000  0.0000  0.0000  0.0000  0.0000  0.0000
  o =  0.2256  v =  0.0000  0.0000  0.0000  0.0000  0.0000  0.0000  1.0000  0.0000  0.0000  0.0000      0.0000  0.0000  0.0000  0.0000  0.0000  0.0000  0.0000  0.0000  0.0000  0.0000
  o =  0.2256  v =  0.0000  0.0000  0.0000  0.0000  0.0000  0.0000  0.0000  0.0000  1.0000  0.0000      0.0000  0.0000  0.0000  0.0000  0.0000  0.0000  0.0000  0.0000  0.0000  0.0000
  o =  0.2256  v =  0.0000  0.0000  0.0000  0.0000  0.0000  0.0000  0.0000  0.0000  0.0000  1.0000      0.0000  0.0000  0.0000  0.0000  0.0000  0.0000  0.0000  0.0000  0.0000  0.0000
  o =  0.8272  v =  0.0000  1.0000  0.0000  0.0000  0.0000  0.0000  0.0000  0.0000  0.0000  0.0000      0.0000  0.0000  0.0000  0.0000  0.0000  0.0000  0.0000  0.0000  0.0000  0.0000
  o =  0.8272  v =  0.0000  0.0000  1.0000  0.0000  0.0000  0.0000  0.0000  0.0000  0.0000  0.0000      0.0000  0.0000  0.0000  0.0000  0.0000  0.0000  0.0000  0.0000  0.0000  0.0000
  o =  0.8272  v =  1.0000  0.0000  0.0000  0.0000  0.0000  0.0000  0.0000  0.0000  0.0000  0.0000      0.0000  0.0000  0.0000  0.0000  0.0000  0.0000  0.0000  0.0000  0.0000  0.0000
  o =  0.8272  v =  0.0000  0.0000  0.0000  1.0000  0.0000  0.0000  0.0000  0.0000  0.0000  0.0000      0.0000  0.0000  0.0000  0.0000  0.0000  0.0000  0.0000  0.0000  0.0000  0.0000
  o =  0.8272  v =  0.0000  0.0000  0.0000  0.0000  1.0000  0.0000  0.0000  0.0000  0.0000  0.0000      0.0000  0.0000  0.0000  0.0000  0.0000  0.0000  0.0000  0.0000  0.0000  0.0000
atom =  10  type =  3  l = 2
 
 onsite density matrix
 
spin component  1
 
  1.1008  0.0000  0.0000  0.0000  0.0000
  0.0000  1.1008  0.0000  0.0000  0.0000
  0.0000  0.0000  1.1008  0.0000  0.0000
  0.0000  0.0000  0.0000  1.1008  0.0000
  0.0000  0.0000  0.0000  0.0000  1.1008
 
spin component  2
 
  0.5927  0.0000  0.0000  0.0000  0.0000
  0.0000  0.5927  0.0000  0.0000  0.0000
  0.0000  0.0000  0.5927  0.0000  0.0000
  0.0000  0.0000  0.0000  0.5927  0.0000
  0.0000  0.0000  0.0000  0.0000  0.5927
 
 occupancies and eigenvectors
 
  o =  0.5927  v =  0.0000  0.0000  0.0000  0.0000  0.0000  1.0000  0.0000  0.0000  0.0000  0.0000      0.0000  0.0000  0.0000  0.0000  0.0000  0.0000  0.0000  0.0000  0.0000  0.0000
  o =  0.5927  v =  0.0000  0.0000  0.0000  0.0000  0.0000  0.0000  1.0000  0.0000  0.0000  0.0000      0.0000  0.0000  0.0000  0.0000  0.0000  0.0000  0.0000  0.0000  0.0000  0.0000
  o =  0.5927  v =  0.0000  0.0000  0.0000  0.0000  0.0000  0.0000  0.0000  1.0000  0.0000  0.0000      0.0000  0.0000  0.0000  0.0000  0.0000  0.0000  0.0000  0.0000  0.0000  0.0000
  o =  0.5927  v =  0.0000  0.0000  0.0000  0.0000  0.0000  0.0000  0.0000  0.0000  1.0000  0.0000      0.0000  0.0000  0.0000  0.0000  0.0000  0.0000  0.0000  0.0000  0.0000  0.0000
  o =  0.5927  v =  0.0000  0.0000  0.0000  0.0000  0.0000  0.0000  0.0000  0.0000  0.0000  1.0000      0.0000  0.0000  0.0000  0.0000  0.0000  0.0000  0.0000  0.0000  0.0000  0.0000
  o =  1.1008  v =  1.0000  0.0000  0.0000  0.0000  0.0000  0.0000  0.0000  0.0000  0.0000  0.0000      0.0000  0.0000  0.0000  0.0000  0.0000  0.0000  0.0000  0.0000  0.0000  0.0000
  o =  1.1008  v =  0.0000  1.0000  0.0000  0.0000  0.0000  0.0000  0.0000  0.0000  0.0000  0.0000      0.0000  0.0000  0.0000  0.0000  0.0000  0.0000  0.0000  0.0000  0.0000  0.0000
  o =  1.1008  v =  0.0000  0.0000  1.0000  0.0000  0.0000  0.0000  0.0000  0.0000  0.0000  0.0000      0.0000  0.0000  0.0000  0.0000  0.0000  0.0000  0.0000  0.0000  0.0000  0.0000
  o =  1.1008  v =  0.0000  0.0000  0.0000  1.0000  0.0000  0.0000  0.0000  0.0000  0.0000  0.0000      0.0000  0.0000  0.0000  0.0000  0.0000  0.0000  0.0000  0.0000  0.0000  0.0000
  o =  1.1008  v =  0.0000  0.0000  0.0000  0.0000  1.0000  0.0000  0.0000  0.0000  0.0000  0.0000      0.0000  0.0000  0.0000  0.0000  0.0000  0.0000  0.0000  0.0000  0.0000  0.0000
atom =  11  type =  3  l = 2
 
 onsite density matrix
 
spin component  1
 
  1.1008  0.0000  0.0000  0.0000  0.0000
  0.0000  1.1008  0.0000  0.0000  0.0000
  0.0000  0.0000  1.1008  0.0000  0.0000
  0.0000  0.0000  0.0000  1.1008  0.0000
  0.0000  0.0000  0.0000  0.0000  1.1008
 
spin component  2
 
  0.5927  0.0000  0.0000  0.0000  0.0000
  0.0000  0.5927  0.0000  0.0000  0.0000
  0.0000  0.0000  0.5927  0.0000  0.0000
  0.0000  0.0000  0.0000  0.5927  0.0000
  0.0000  0.0000  0.0000  0.0000  0.5927
 
 occupancies and eigenvectors
 
  o =  0.5927  v =  0.0000  0.0000  0.0000  0.0000  0.0000  1.0000  0.0000  0.0000  0.0000  0.0000      0.0000  0.0000  0.0000  0.0000  0.0000  0.0000  0.0000  0.0000  0.0000  0.0000
  o =  0.5927  v =  0.0000  0.0000  0.0000  0.0000  0.0000  0.0000  1.0000  0.0000  0.0000  0.0000      0.0000  0.0000  0.0000  0.0000  0.0000  0.0000  0.0000  0.0000  0.0000  0.0000
  o =  0.5927  v =  0.0000  0.0000  0.0000  0.0000  0.0000  0.0000  0.0000  1.0000  0.0000  0.0000      0.0000  0.0000  0.0000  0.0000  0.0000  0.0000  0.0000  0.0000  0.0000  0.0000
  o =  0.5927  v =  0.0000  0.0000  0.0000  0.0000  0.0000  0.0000  0.0000  0.0000  1.0000  0.0000      0.0000  0.0000  0.0000  0.0000  0.0000  0.0000  0.0000  0.0000  0.0000  0.0000
  o =  0.5927  v =  0.0000  0.0000  0.0000  0.0000  0.0000  0.0000  0.0000  0.0000  0.0000  1.0000      0.0000  0.0000  0.0000  0.0000  0.0000  0.0000  0.0000  0.0000  0.0000  0.0000
  o =  1.1008  v =  1.0000  0.0000  0.0000  0.0000  0.0000  0.0000  0.0000  0.0000  0.0000  0.0000      0.0000  0.0000  0.0000  0.0000  0.0000  0.0000  0.0000  0.0000  0.0000  0.0000
  o =  1.1008  v =  0.0000  1.0000  0.0000  0.0000  0.0000  0.0000  0.0000  0.0000  0.0000  0.0000      0.0000  0.0000  0.0000  0.0000  0.0000  0.0000  0.0000  0.0000  0.0000  0.0000
  o =  1.1008  v =  0.0000  0.0000  1.0000  0.0000  0.0000  0.0000  0.0000  0.0000  0.0000  0.0000      0.0000  0.0000  0.0000  0.0000  0.0000  0.0000  0.0000  0.0000  0.0000  0.0000
  o =  1.1008  v =  0.0000  0.0000  0.0000  1.0000  0.0000  0.0000  0.0000  0.0000  0.0000  0.0000      0.0000  0.0000  0.0000  0.0000  0.0000  0.0000  0.0000  0.0000  0.0000  0.0000
  o =  1.1008  v =  0.0000  0.0000  0.0000  0.0000  1.0000  0.0000  0.0000  0.0000  0.0000  0.0000      0.0000  0.0000  0.0000  0.0000  0.0000  0.0000  0.0000  0.0000  0.0000  0.0000
atom =  12  type =  3  l = 2
 
 onsite density matrix
 
spin component  1
 
  1.1008  0.0000  0.0000  0.0000  0.0000
  0.0000  1.1008  0.0000  0.0000  0.0000
  0.0000  0.0000  1.1008  0.0000  0.0000
  0.0000  0.0000  0.0000  1.1008  0.0000
  0.0000  0.0000  0.0000  0.0000  1.1008
 
spin component  2
 
  0.5927  0.0000  0.0000  0.0000  0.0000
  0.0000  0.5927  0.0000  0.0000  0.0000
  0.0000  0.0000  0.5927  0.0000  0.0000
  0.0000  0.0000  0.0000  0.5927  0.0000
  0.0000  0.0000  0.0000  0.0000  0.5927
 
 occupancies and eigenvectors
 
  o =  0.5927  v =  0.0000  0.0000  0.0000  0.0000  0.0000  1.0000  0.0000  0.0000  0.0000  0.0000      0.0000  0.0000  0.0000  0.0000  0.0000  0.0000  0.0000  0.0000  0.0000  0.0000
  o =  0.5927  v =  0.0000  0.0000  0.0000  0.0000  0.0000  0.0000  1.0000  0.0000  0.0000  0.0000      0.0000  0.0000  0.0000  0.0000  0.0000  0.0000  0.0000  0.0000  0.0000  0.0000
  o =  0.5927  v =  0.0000  0.0000  0.0000  0.0000  0.0000  0.0000  0.0000  1.0000  0.0000  0.0000      0.0000  0.0000  0.0000  0.0000  0.0000  0.0000  0.0000  0.0000  0.0000  0.0000
  o =  0.5927  v =  0.0000  0.0000  0.0000  0.0000  0.0000  0.0000  0.0000  0.0000  1.0000  0.0000      0.0000  0.0000  0.0000  0.0000  0.0000  0.0000  0.0000  0.0000  0.0000  0.0000
  o =  0.5927  v =  0.0000  0.0000  0.0000  0.0000  0.0000  0.0000  0.0000  0.0000  0.0000  1.0000      0.0000  0.0000  0.0000  0.0000  0.0000  0.0000  0.0000  0.0000  0.0000  0.0000
  o =  1.1008  v =  1.0000  0.0000  0.0000  0.0000  0.0000  0.0000  0.0000  0.0000  0.0000  0.0000      0.0000  0.0000  0.0000  0.0000  0.0000  0.0000  0.0000  0.0000  0.0000  0.0000
  o =  1.1008  v =  0.0000  1.0000  0.0000  0.0000  0.0000  0.0000  0.0000  0.0000  0.0000  0.0000      0.0000  0.0000  0.0000  0.0000  0.0000  0.0000  0.0000  0.0000  0.0000  0.0000
  o =  1.1008  v =  0.0000  0.0000  1.0000  0.0000  0.0000  0.0000  0.0000  0.0000  0.0000  0.0000      0.0000  0.0000  0.0000  0.0000  0.0000  0.0000  0.0000  0.0000  0.0000  0.0000
  o =  1.1008  v =  0.0000  0.0000  0.0000  1.0000  0.0000  0.0000  0.0000  0.0000  0.0000  0.0000      0.0000  0.0000  0.0000  0.0000  0.0000  0.0000  0.0000  0.0000  0.0000  0.0000
  o =  1.1008  v =  0.0000  0.0000  0.0000  0.0000  1.0000  0.0000  0.0000  0.0000  0.0000  0.0000      0.0000  0.0000  0.0000  0.0000  0.0000  0.0000  0.0000  0.0000  0.0000  0.0000
atom =  13  type =  4  l = 0
 
 onsite density matrix
 
spin component  1
 
  0.8190
 
spin component  2
 
  0.8190
 
 occupancies and eigenvectors
 
  o =  0.8190  v =  1.0000  0.0000      0.0000  0.0000
  o =  0.8190  v =  0.0000  1.0000      0.0000  0.0000
atom =  14  type =  4  l = 0
 
 onsite density matrix
 
spin component  1
 
  0.8190
 
spin component  2
 
  0.8190
 
 occupancies and eigenvectors
 
  o =  0.8190  v =  1.0000  0.0000      0.0000  0.0000
  o =  0.8190  v =  0.0000  1.0000      0.0000  0.0000
atom =  15  type =  4  l = 0
 
 onsite density matrix
 
spin component  1
 
  0.8190
 
spin component  2
 
  0.8190
 
 occupancies and eigenvectors
 
  o =  0.8190  v =  1.0000  0.0000      0.0000  0.0000
  o =  0.8190  v =  0.0000  1.0000      0.0000  0.0000
atom =  16  type =  4  l = 0
 
 onsite density matrix
 
spin component  1
 
  0.8190
 
spin component  2
 
  0.8190
 
 occupancies and eigenvectors
 
  o =  0.8190  v =  1.0000  0.0000      0.0000  0.0000
  o =  0.8190  v =  0.0000  1.0000      0.0000  0.0000
atom =  17  type =  4  l = 0
 
 onsite density matrix
 
spin component  1
 
  0.8190
 
spin component  2
 
  0.8190
 
 occupancies and eigenvectors
 
  o =  0.8190  v =  1.0000  0.0000      0.0000  0.0000
  o =  0.8190  v =  0.0000  1.0000      0.0000  0.0000
atom =  18  type =  4  l = 0
 
 onsite density matrix
 
spin component  1
 
  0.8190
 
spin component  2
 
  0.8190
 
 occupancies and eigenvectors
 
  o =  0.8190  v =  1.0000  0.0000      0.0000  0.0000
  o =  0.8190  v =  0.0000  1.0000      0.0000  0.0000
atom =  19  type =  4  l = 0
 
 onsite density matrix
 
spin component  1
 
  0.8190
 
spin component  2
 
  0.8190
 
 occupancies and eigenvectors
 
  o =  0.8190  v =  1.0000  0.0000      0.0000  0.0000
  o =  0.8190  v =  0.0000  1.0000      0.0000  0.0000
atom =  20  type =  4  l = 0
 
 onsite density matrix
 
spin component  1
 
  0.8190
 
spin component  2
 
  0.8190
 
 occupancies and eigenvectors
 
  o =  0.8190  v =  1.0000  0.0000      0.0000  0.0000
  o =  0.8190  v =  0.0000  1.0000      0.0000  0.0000
atom =  21  type =  4  l = 0
 
 onsite density matrix
 
spin component  1
 
  0.8190
 
spin component  2
 
  0.8190
 
 occupancies and eigenvectors
 
  o =  0.8190  v =  1.0000  0.0000      0.0000  0.0000
  o =  0.8190  v =  0.0000  1.0000      0.0000  0.0000
atom =  22  type =  4  l = 0
 
 onsite density matrix
 
spin component  1
 
  0.8190
 
spin component  2
 
  0.8190
 
 occupancies and eigenvectors
 
  o =  0.8190  v =  1.0000  0.0000      0.0000  0.0000
  o =  0.8190  v =  0.0000  1.0000      0.0000  0.0000
atom =  23  type =  4  l = 0
 
 onsite density matrix
 
spin component  1
 
  0.8190
 
spin component  2
 
  0.8190
 
 occupancies and eigenvectors
 
  o =  0.8190  v =  1.0000  0.0000      0.0000  0.0000
  o =  0.8190  v =  0.0000  1.0000      0.0000  0.0000
atom =  24  type =  4  l = 0
 
 onsite density matrix
 
spin component  1
 
  0.8190
 
spin component  2
 
  0.8190
 
 occupancies and eigenvectors
 
  o =  0.8190  v =  1.0000  0.0000      0.0000  0.0000
  o =  0.8190  v =  0.0000  1.0000      0.0000  0.0000
atom =  25  type =  4  l = 0
 
 onsite density matrix
 
spin component  1
 
  0.8190
 
spin component  2
 
  0.8190
 
 occupancies and eigenvectors
 
  o =  0.8190  v =  1.0000  0.0000      0.0000  0.0000
  o =  0.8190  v =  0.0000  1.0000      0.0000  0.0000
atom =  26  type =  4  l = 0
 
 onsite density matrix
 
spin component  1
 
  0.8190
 
spin component  2
 
  0.8190
 
 occupancies and eigenvectors
 
  o =  0.8190  v =  1.0000  0.0000      0.0000  0.0000
  o =  0.8190  v =  0.0000  1.0000      0.0000  0.0000
atom =  27  type =  4  l = 0
 
 onsite density matrix
 
spin component  1
 
  0.8190
 
spin component  2
 
  0.8190
 
 occupancies and eigenvectors
 
  o =  0.8190  v =  1.0000  0.0000      0.0000  0.0000
  o =  0.8190  v =  0.0000  1.0000      0.0000  0.0000
atom =  28  type =  4  l = 0
 
 onsite density matrix
 
spin component  1
 
  0.8190
 
spin component  2
 
  0.8190
 
 occupancies and eigenvectors
 
  o =  0.8190  v =  1.0000  0.0000      0.0000  0.0000
  o =  0.8190  v =  0.0000  1.0000      0.0000  0.0000
atom =  29  type =  4  l = 0
 
 onsite density matrix
 
spin component  1
 
  0.8190
 
spin component  2
 
  0.8190
 
 occupancies and eigenvectors
 
  o =  0.8190  v =  1.0000  0.0000      0.0000  0.0000
  o =  0.8190  v =  0.0000  1.0000      0.0000  0.0000
atom =  30  type =  4  l = 0
 
 onsite density matrix
 
spin component  1
 
  0.8190
 
spin component  2
 
  0.8190
 
 occupancies and eigenvectors
 
  o =  0.8190  v =  1.0000  0.0000      0.0000  0.0000
  o =  0.8190  v =  0.0000  1.0000      0.0000  0.0000
     EDDAV:  cpu time    3.9971: real time    4.0132
 BZINTS: Fermi energy: 31.887766;225.000000 electrons
         Band energy:3372.151677;  BLOECHL correction: -0.202445
       DOS:  cpu time    0.0241: real time    0.0276
    --------------------------------------------
      LOOP:  cpu time    4.1392: real time    4.1599

 eigenvalue-minimisations  :  7512
 total energy-change (2. order) : 0.3570640E+04  (-0.7854297E+04)
 number of electron     225.0000000 magnetization      21.0000000
 augmentation part      225.0000000 magnetization      21.0000000

 Free energy of the ion-electron system (eV)
  ---------------------------------------------------
  alpha Z        PSCENC =       982.39485935
  Ewald energy   TEWEN  =    -15427.54467975
  -Hartree energ DENC   =     -3482.23806935
  -exchange      EXHF   =         0.00000000
  -V(xc)+E(xc)   XCENC  =       754.20181458
  PAW double counting   =     14201.63522633   -14291.52419254
  entropy T*S    EENTRO =         0.00000000
  eigenvalues    EBANDS =      3372.15167666
  atomic energy  EATOM  =     17461.56381371
  Solvation  Ediel_sol  =         0.00000000
  ---------------------------------------------------
  free energy    TOTEN  =      3570.64044900 eV

  energy without entropy =     3570.64044900  energy(sigma->0) =     3570.64044900


--------------------------------------------------------------------------------------------------------




--------------------------------------- Iteration      1(   2)  ---------------------------------------


     EDDAV:  cpu time    4.0676: real time    4.0819
 BZINTS: Fermi energy: 16.542611;225.000000 electrons
         Band energy:1042.772828;  BLOECHL correction: -0.055801
       DOS:  cpu time    0.0246: real time    0.0247
    --------------------------------------------
      LOOP:  cpu time    4.0922: real time    4.1065

 eigenvalue-minimisations  :  7752
 total energy-change (2. order) :-0.2329379E+04  (-0.2096561E+04)
 number of electron     225.0000000 magnetization      21.0000000
 augmentation part      225.0000000 magnetization      21.0000000

 Free energy of the ion-electron system (eV)
  ---------------------------------------------------
  alpha Z        PSCENC =       982.39485935
  Ewald energy   TEWEN  =    -15427.54467975
  -Hartree energ DENC   =     -3482.23806935
  -exchange      EXHF   =         0.00000000
  -V(xc)+E(xc)   XCENC  =       754.20181458
  PAW double counting   =     14201.63522633   -14291.52419254
  entropy T*S    EENTRO =         0.00000000
  eigenvalues    EBANDS =      1042.77282844
  atomic energy  EATOM  =     17461.56381371
  Solvation  Ediel_sol  =         0.00000000
  ---------------------------------------------------
  free energy    TOTEN  =      1241.26160078 eV

  energy without entropy =     1241.26160078  energy(sigma->0) =     1241.26160078


--------------------------------------------------------------------------------------------------------




--------------------------------------- Iteration      1(   3)  ---------------------------------------


     EDDAV:  cpu time    4.1565: real time    4.1724
 BZINTS: Fermi energy: 12.231260;225.000000 electrons
         Band energy:  67.673459;  BLOECHL correction: -0.034195
       DOS:  cpu time    0.0258: real time    0.0258
    --------------------------------------------
      LOOP:  cpu time    4.1822: real time    4.1982

 eigenvalue-minimisations  :  7912
 total energy-change (2. order) :-0.9750994E+03  (-0.8740230E+03)
 number of electron     225.0000000 magnetization      21.0000000
 augmentation part      225.0000000 magnetization      21.0000000

 Free energy of the ion-electron system (eV)
  ---------------------------------------------------
  alpha Z        PSCENC =       982.39485935
  Ewald energy   TEWEN  =    -15427.54467975
  -Hartree energ DENC   =     -3482.23806935
  -exchange      EXHF   =         0.00000000
  -V(xc)+E(xc)   XCENC  =       754.20181458
  PAW double counting   =     14201.63522633   -14291.52419254
  entropy T*S    EENTRO =         0.00000000
  eigenvalues    EBANDS =        67.67345854
  atomic energy  EATOM  =     17461.56381371
  Solvation  Ediel_sol  =         0.00000000
  ---------------------------------------------------
  free energy    TOTEN  =       266.16223088 eV

  energy without entropy =      266.16223088  energy(sigma->0) =      266.16223088


--------------------------------------------------------------------------------------------------------




--------------------------------------- Iteration      1(   4)  ---------------------------------------


     EDDAV:  cpu time    5.4922: real time    5.5120
 BZINTS: Fermi energy: 11.537196;225.000000 electrons
         Band energy:-357.127177;  BLOECHL correction: -0.011783
       DOS:  cpu time    0.0272: real time    0.0273
    --------------------------------------------
      LOOP:  cpu time    5.5194: real time    5.5392

 eigenvalue-minimisations  : 11200
 total energy-change (2. order) :-0.4248006E+03  (-0.3991796E+03)
 number of electron     225.0000000 magnetization      21.0000000
 augmentation part      225.0000000 magnetization      21.0000000

 Free energy of the ion-electron system (eV)
  ---------------------------------------------------
  alpha Z        PSCENC =       982.39485935
  Ewald energy   TEWEN  =    -15427.54467975
  -Hartree energ DENC   =     -3482.23806935
  -exchange      EXHF   =         0.00000000
  -V(xc)+E(xc)   XCENC  =       754.20181458
  PAW double counting   =     14201.63522633   -14291.52419254
  entropy T*S    EENTRO =         0.00000000
  eigenvalues    EBANDS =      -357.12717724
  atomic energy  EATOM  =     17461.56381371
  Solvation  Ediel_sol  =         0.00000000
  ---------------------------------------------------
  free energy    TOTEN  =      -158.63840490 eV

  energy without entropy =     -158.63840490  energy(sigma->0) =     -158.63840490


--------------------------------------------------------------------------------------------------------




--------------------------------------- Iteration      1(   5)  ---------------------------------------


     EDDAV:  cpu time    6.1961: real time    6.2318
 BZINTS: Fermi energy: 11.030393;225.000000 electrons
         Band energy:-448.153899;  BLOECHL correction: -0.072703
       DOS:  cpu time    0.0257: real time    0.0258
    CHARGE:  cpu time    0.1668: real time    0.1719
    MIXING:  cpu time    0.0033: real time    0.0034
    --------------------------------------------
      LOOP:  cpu time    6.3920: real time    6.4330

 eigenvalue-minimisations  : 12788
 total energy-change (2. order) :-0.9102672E+02  (-0.8739213E+02)
 number of electron     225.0000100 magnetization      18.9679726
 augmentation part       28.6270734 magnetization      14.0545708

 Broyden mixing:
  rms(total) = 0.75847E+01    rms(broyden)= 0.75842E+01
  rms(prec ) = 0.85877E+01
  weight for this iteration     100.00

 Free energy of the ion-electron system (eV)
  ---------------------------------------------------
  alpha Z        PSCENC =       982.39485935
  Ewald energy   TEWEN  =    -15427.54467975
  -Hartree energ DENC   =     -3482.23806935
  -exchange      EXHF   =         0.00000000
  -V(xc)+E(xc)   XCENC  =       754.20181458
  PAW double counting   =     14201.63522633   -14291.52419254
  entropy T*S    EENTRO =         0.00000000
  eigenvalues    EBANDS =      -448.15389851
  atomic energy  EATOM  =     17461.56381371
  Solvation  Ediel_sol  =         0.00000000
  ---------------------------------------------------
  free energy    TOTEN  =      -249.66512617 eV

  energy without entropy =     -249.66512617  energy(sigma->0) =     -249.66512617


--------------------------------------------------------------------------------------------------------




--------------------------------------- Iteration      1(   6)  ---------------------------------------


    POTLOK:  cpu time    0.0758: real time    0.0774
    SETDIJ:  cpu time    0.0134: real time    0.0134
atom =   1  type =  1  l = 0
 
 onsite density matrix
 
spin component  1
 
  1.0561
 
spin component  2
 
  1.0561
 
 occupancies and eigenvectors
 
  o =  1.0561  v =  0.0000  1.0000      0.0000  0.0000
  o =  1.0561  v =  1.0000  0.0000      0.0000  0.0000
atom =   2  type =  1  l = 0
 
 onsite density matrix
 
spin component  1
 
  1.0561
 
spin component  2
 
  1.0561
 
 occupancies and eigenvectors
 
  o =  1.0561  v =  0.0000  1.0000      0.0000  0.0000
  o =  1.0561  v =  1.0000  0.0000      0.0000  0.0000
atom =   3  type =  1  l = 0
 
 onsite density matrix
 
spin component  1
 
  1.0571
 
spin component  2
 
  1.0568
 
 occupancies and eigenvectors
 
  o =  1.0568  v =  0.0000  1.0000      0.0000  0.0000
  o =  1.0571  v =  1.0000  0.0000      0.0000  0.0000
atom =   4  type =  1  l = 0
 
 onsite density matrix
 
spin component  1
 
  1.0565
 
spin component  2
 
  1.0562
 
 occupancies and eigenvectors
 
  o =  1.0562  v =  0.0000  1.0000      0.0000  0.0000
  o =  1.0565  v =  1.0000  0.0000      0.0000  0.0000
atom =   5  type =  1  l = 0
 
 onsite density matrix
 
spin component  1
 
  1.0565
 
spin component  2
 
  1.0562
 
 occupancies and eigenvectors
 
  o =  1.0562  v =  0.0000  1.0000      0.0000  0.0000
  o =  1.0565  v =  1.0000  0.0000      0.0000  0.0000
atom =   6  type =  1  l = 0
 
 onsite density matrix
 
spin component  1
 
  1.0571
 
spin component  2
 
  1.0568
 
 occupancies and eigenvectors
 
  o =  1.0568  v =  0.0000  1.0000      0.0000  0.0000
  o =  1.0571  v =  1.0000  0.0000      0.0000  0.0000
atom =   7  type =  2  l = 2
 
 onsite density matrix
 
spin component  1
 
  0.9407  0.0000  0.0000 -0.0191  0.0000
  0.0000  0.9489  0.0057  0.0000  0.0068
  0.0000  0.0057  0.3572  0.0000 -0.0384
 -0.0191  0.0000  0.0000  0.9517  0.0000
  0.0000  0.0068 -0.0384  0.0000  0.3802
 
spin component  2
 
  0.0400  0.0000  0.0000  0.0125  0.0000
  0.0000  0.0359 -0.0024  0.0000 -0.0045
  0.0000 -0.0024  0.4464  0.0000  0.0249
  0.0125  0.0000  0.0000  0.0292  0.0000
  0.0000 -0.0045  0.0249  0.0000  0.4316
 
 occupancies and eigenvectors
 
  o =  0.0210  v =  0.0000  0.0000  0.0000  0.0000  0.0000 -0.5493  0.0000  0.0000  0.8356  0.0000      0.0000  0.0000  0.0000  0.0000  0.0000  0.0000  0.0000  0.0000  0.0000  0.0000
  o =  0.0359  v =  0.0000  0.0000  0.0000  0.0000  0.0000  0.0000  0.9999  0.0052  0.0000  0.0110      0.0000  0.0000  0.0000  0.0000  0.0000  0.0000  0.0000  0.0000  0.0000  0.0000
  o =  0.0481  v =  0.0000  0.0000  0.0000  0.0000  0.0000 -0.8356  0.0000  0.0000 -0.5493  0.0000      0.0000  0.0000  0.0000  0.0000  0.0000  0.0000  0.0000  0.0000  0.0000  0.0000
  o =  0.3285  v =  0.0000 -0.0138  0.8019  0.0000  0.5973  0.0000  0.0000  0.0000  0.0000  0.0000      0.0000  0.0000  0.0000  0.0000  0.0000  0.0000  0.0000  0.0000  0.0000  0.0000
  o =  0.4088  v =  0.0000  0.0038  0.5974  0.0000 -0.8020  0.0000  0.0000  0.0000  0.0000  0.0000      0.0000  0.0000  0.0000  0.0000  0.0000  0.0000  0.0000  0.0000  0.0000  0.0000
  o =  0.4130  v =  0.0000  0.0000  0.0000  0.0000  0.0000  0.0000 -0.0057 -0.5989  0.0000  0.8008      0.0000  0.0000  0.0000  0.0000  0.0000  0.0000  0.0000  0.0000  0.0000  0.0000
  o =  0.4650  v =  0.0000  0.0000  0.0000  0.0000  0.0000  0.0000  0.0107 -0.8008  0.0000 -0.5989      0.0000  0.0000  0.0000  0.0000  0.0000  0.0000  0.0000  0.0000  0.0000  0.0000
  o =  0.9263  v = -0.7989  0.0000  0.0000 -0.6014  0.0000  0.0000  0.0000  0.0000  0.0000  0.0000      0.0000  0.0000  0.0000  0.0000  0.0000  0.0000  0.0000  0.0000  0.0000  0.0000
  o =  0.9490  v =  0.0000  0.9999  0.0088  0.0000  0.0113  0.0000  0.0000  0.0000  0.0000  0.0000      0.0000  0.0000  0.0000  0.0000  0.0000  0.0000  0.0000  0.0000  0.0000  0.0000
  o =  0.9661  v = -0.6014  0.0000  0.0000  0.7989  0.0000  0.0000  0.0000  0.0000  0.0000  0.0000      0.0000  0.0000  0.0000  0.0000  0.0000  0.0000  0.0000  0.0000  0.0000  0.0000
atom =   8  type =  2  l = 2
 
 onsite density matrix
 
spin component  1
 
  0.9496  0.0000  0.0000 -0.0043  0.0000
  0.0000  0.9400 -0.0022  0.0000 -0.0023
  0.0000 -0.0022  0.3411  0.0000 -0.0135
 -0.0043  0.0000  0.0000  0.9561  0.0000
  0.0000 -0.0023 -0.0135  0.0000  0.3545
 
spin component  2
 
  0.0329  0.0000  0.0000  0.0031  0.0000
  0.0000  0.0410  0.0016  0.0000  0.0013
  0.0000  0.0016  0.4561  0.0000  0.0098
  0.0031  0.0000  0.0000  0.0290  0.0000
  0.0000  0.0013  0.0098  0.0000  0.4466
 
 occupancies and eigenvectors
 
  o =  0.0273  v =  0.0000  0.0000  0.0000  0.0000  0.0000 -0.4776  0.0000  0.0000  0.8786  0.0000      0.0000  0.0000  0.0000  0.0000  0.0000  0.0000  0.0000  0.0000  0.0000  0.0000
  o =  0.0346  v =  0.0000  0.0000  0.0000  0.0000  0.0000 -0.8786  0.0000  0.0000 -0.4776  0.0000      0.0000  0.0000  0.0000  0.0000  0.0000  0.0000  0.0000  0.0000  0.0000  0.0000
[...]
  0.000  -0.001  -0.000   0.000   0.000   0.000  -0.000   0.000   0.000   0.001  -0.002   0.000  -0.000   0.000  -0.000   0.001
  0.000   0.000   0.000   0.000  -0.000   0.000   0.000   0.000  -0.002   0.000   0.000  -0.000   0.000   0.001   0.000   0.000
 -0.000  -0.001  -0.000  -0.000   0.000  -0.000  -0.000   0.000   0.000  -0.001  -0.000   0.000  -0.003   0.000   0.000   0.000
  0.000   0.000   0.000   0.000  -0.000   0.000   0.000  -0.000   0.000   0.000   0.000  -0.003   0.000  -0.000   0.000   0.000
 -0.000   0.001   0.000  -0.000   0.000  -0.000   0.000   0.000   0.000  -0.003   0.002   0.000  -0.004   0.000   0.001  -0.001
  0.000   0.000   0.000   0.000  -0.001   0.000   0.000   0.001  -0.002   0.000   0.000   0.004   0.000   0.001   0.000   0.000
 -0.000   0.002   0.000  -0.000   0.000  -0.000  -0.000   0.000   0.000   0.000  -0.005   0.000   0.001   0.000  -0.000   0.002
 -0.000   0.001   0.000  -0.000   0.000  -0.000   0.000   0.000   0.000  -0.002   0.003   0.000  -0.000   0.000   0.001  -0.001
  0.000   0.000   0.000   0.000   0.000   0.000   0.000  -0.000   0.004   0.000   0.000   0.001   0.000  -0.002   0.000   0.000
  0.000   0.001   0.000  -0.000   0.000   0.000   0.000   0.000   0.000   0.002   0.000   0.000   0.006   0.000  -0.001  -0.000
  0.000   0.000   0.000   0.000  -0.000   0.000   0.000   0.000  -0.000   0.000   0.000   0.005   0.000   0.000   0.000   0.000


------------------------ aborting loop because EDIFF is reached ----------------------------------------


 


 total charge     
 
# of ion       s       p       d       f       tot
--------------------------------------------------
    1        2.000   5.696   0.489   0.188   8.373
    2        2.000   5.696   0.489   0.188   8.373
    3        2.001   5.698   0.501   0.193   8.393
    4        2.001   5.701   0.498   0.195   8.394
    5        2.001   5.701   0.498   0.195   8.394
    6        2.002   5.698   0.501   0.193   8.393
    7        0.340   0.531   4.860   0.000   5.731
    8        0.341   0.526   4.861   0.000   5.729
    9        0.341   0.526   4.861   0.000   5.729
   10        0.407   0.595   8.333   0.000   9.335
   11        0.412   0.603   8.324   0.000   9.339
   12        0.407   0.595   8.333   0.000   9.335
   13        1.564   3.451   0.000   0.000   5.015
   14        1.562   3.459   0.000   0.000   5.021
   15        1.562   3.459   0.000   0.000   5.021
   16        1.564   3.451   0.000   0.000   5.015
   17        1.558   3.459   0.000   0.000   5.017
   18        1.558   3.459   0.000   0.000   5.017
   19        1.561   3.460   0.000   0.000   5.021
   20        1.562   3.458   0.000   0.000   5.020
   21        1.564   3.447   0.000   0.000   5.011
   22        1.557   3.452   0.000   0.000   5.010
   23        1.564   3.447   0.000   0.000   5.011
   24        1.562   3.458   0.000   0.000   5.020
   25        1.566   3.447   0.000   0.000   5.013
   26        1.566   3.450   0.000   0.000   5.015
   27        1.566   3.447   0.000   0.000   5.013
   28        1.558   3.462   0.000   0.000   5.019
   29        1.559   3.454   0.000   0.000   5.013
   30        1.558   3.462   0.000   0.000   5.019
--------------------------------------------------
tot         42.361  99.750  42.547   1.151 185.809

 


 magnetization (x)
 
# of ion       s       p       d       f       tot
--------------------------------------------------
    1       -0.000   0.000   0.003   0.002   0.006
    2       -0.000   0.000   0.003   0.002   0.006
    3        0.000   0.001   0.006   0.004   0.011
    4        0.001   0.001   0.011   0.005   0.018
    5        0.001   0.001   0.011   0.005   0.018
    6        0.000   0.001   0.006   0.004   0.011
    7        0.022   0.023   3.397   0.000   3.442
    8        0.023   0.020   3.391   0.000   3.434
    9        0.023   0.020   3.391   0.000   3.434
   10        0.015   0.010   1.615   0.000   1.640
   11        0.018   0.011   1.572   0.000   1.601
   12        0.015   0.010   1.615   0.000   1.640
   13        0.005  -0.047   0.000   0.000  -0.041
   14        0.002  -0.029   0.000   0.000  -0.027
   15        0.002  -0.029   0.000   0.000  -0.027
   16        0.005  -0.047   0.000   0.000  -0.042
   17        0.007  -0.013   0.000   0.000  -0.006
   18        0.007  -0.013   0.000   0.000  -0.006
   19        0.001  -0.022   0.000   0.000  -0.020
   20        0.005  -0.022   0.000   0.000  -0.017
   21        0.005  -0.034   0.000   0.000  -0.029
   22        0.007   0.001   0.000   0.000   0.008
   23        0.005  -0.034   0.000   0.000  -0.029
   24        0.005  -0.022   0.000   0.000  -0.017
   25        0.004  -0.062   0.000   0.000  -0.058
   26        0.004  -0.058   0.000   0.000  -0.053
   27        0.004  -0.062   0.000   0.000  -0.058
   28        0.006  -0.010   0.000   0.000  -0.004
   29        0.007  -0.027   0.000   0.000  -0.020
   30        0.006  -0.010   0.000   0.000  -0.004
--------------------------------------------------
tot          0.206  -0.439  15.023   0.022  14.811

 
    CHARGE:  cpu time    0.1626: real time    0.1630
    FORLOC:  cpu time    0.0113: real time    0.0113
    FORNL :  cpu time    1.0362: real time    1.0393
    STRESS:  cpu time    3.1554: real time    3.1649
    FORCOR:  cpu time    0.0853: real time    0.0868
    FORHAR:  cpu time    0.0191: real time    0.0193
    MIXING:  cpu time    0.0051: real time    0.0051
    OFIELD:  cpu time    0.0001: real time    0.0002

  FORCE on cell =-STRESS in cart. coord.  units (eV):
  Direction    XX          YY          ZZ          XY          YZ          ZX
  --------------------------------------------------------------------------------------
  Alpha Z   982.39486   982.39486   982.39486
  Ewald   -5021.73362 -5298.33686 -5107.53120    -0.00000    33.32394     0.00000
  Hartree  1289.89333  1054.26674  1208.15692     0.00000    35.68572    -0.00000
  E(xc)   -1046.22258 -1046.50432 -1046.33538    -0.00000    -0.03751     0.00000
  Local    -957.97283  -445.89631  -788.70157    -0.00000   -68.31523     0.00000
  n-local   416.60403   416.23621   416.71883    -0.00064     0.44425    -0.00031
  augment   489.21663   489.11015   488.55646    -0.00000     0.00970    -0.00000
  Kinetic  3848.26941  3848.49565  3847.43644    -0.00041    -1.15891     0.00042
  Fock        0.00000     0.00000     0.00000     0.00000     0.00000     0.00000
  -------------------------------------------------------------------------------------
  Total       0.44922    -0.23389     0.69535     0.00000    -0.04806     0.00000
  in kB       2.04750    -1.06604     3.16931     0.00000    -0.21903     0.00000
  external pressure =        1.38 kB  Pullay stress =        0.00 kB


 VOLUME and BASIS-vectors are now :
 -----------------------------------------------------------------------------
  energy-cutoff  :      520.00
  volume of cell :      351.52
      direct lattice vectors                 reciprocal lattice vectors
    -3.879121960  0.000000000  0.000000000    -0.257790296  0.000000000  0.000000000
     0.000000000  3.891963210  7.744525511     0.000000000  0.085573508  0.086119034
     0.000000000  7.803965446 -7.754530759     0.000000000  0.085463097 -0.042948949

  length of vectors
     3.879121960  8.667470970 11.001573704     0.257790296  0.121405573  0.095648069


 FORCES acting on ions
    electron-ion (+dipol)            ewald-force                    non-local-force                 convergence-correction
 -----------------------------------------------------------------------------------------------
   -.569E-15 0.856E+02 -.838E+02   0.686E-13 -.849E+02 0.829E+02   0.000E+00 -.803E+00 0.849E+00   -.330E-14 -.405E-01 0.489E-01
   -.124E-14 -.856E+02 0.838E+02   -.373E-13 0.849E+02 -.829E+02   0.000E+00 0.803E+00 -.849E+00   0.175E-14 0.405E-01 -.489E-01
   -.395E-15 -.178E+03 0.144E+02   -.512E-13 0.177E+03 -.142E+02   0.000E+00 0.157E+01 -.197E+00   -.256E-14 0.106E+00 -.194E-01
   -.415E-15 -.886E+02 0.793E+02   -.650E-14 0.880E+02 -.788E+02   0.000E+00 0.668E+00 -.567E+00   0.194E-14 0.655E-01 -.357E-01
   -.976E-15 0.886E+02 -.793E+02   0.211E-14 -.880E+02 0.788E+02   0.000E+00 -.668E+00 0.567E+00   0.843E-15 -.655E-01 0.357E-01
   -.263E-14 0.178E+03 -.144E+02   0.731E-13 -.177E+03 0.142E+02   0.000E+00 -.157E+01 0.197E+00   0.596E-14 -.106E+00 0.194E-01
   -.597E-13 0.156E-11 -.210E-11   -.138E-13 -.924E-13 0.275E-13   0.000E+00 0.000E+00 0.169E-20   -.129E-13 -.140E-12 0.232E-12
   -.437E-13 0.395E+02 -.410E+02   -.277E-13 -.390E+02 0.405E+02   0.000E+00 -.671E+00 0.448E+00   -.143E-13 -.371E-01 0.345E-01
   -.376E-13 -.395E+02 0.410E+02   0.295E-13 0.390E+02 -.405E+02   0.000E+00 0.671E+00 -.448E+00   -.964E-14 0.371E-01 -.345E-01
   -.321E-12 -.524E+02 0.494E+02   0.477E-13 0.511E+02 -.486E+02   0.000E+00 0.122E+01 -.775E+00   -.440E-13 0.706E-01 -.524E-01
   -.289E-12 0.108E-12 -.101E-11   0.538E-14 -.171E-12 -.320E-12   0.000E+00 0.339E-20 -.339E-20   -.559E-13 0.372E-12 0.408E-13
   -.325E-12 0.524E+02 -.494E+02   -.220E-13 -.511E+02 0.486E+02   0.000E+00 -.122E+01 0.775E+00   -.571E-13 -.706E-01 0.524E-01
   -.124E-12 0.224E+02 -.764E+02   -.101E-14 -.213E+02 0.713E+02   0.000E+00 -.104E+01 0.507E+01   -.376E-13 -.359E-01 -.513E-04
   -.122E-12 0.783E+01 0.846E+01   -.391E-13 -.773E+01 -.933E+01   0.000E+00 -.897E-01 0.739E+00   -.355E-13 -.154E-01 0.327E-01
   -.114E-12 -.783E+01 -.846E+01   0.506E-13 0.773E+01 0.933E+01   0.000E+00 0.897E-01 -.739E+00   -.264E-13 0.154E-01 -.327E-01
   -.106E-12 -.224E+02 0.764E+02   -.535E-14 0.213E+02 -.713E+02   0.000E+00 0.104E+01 -.507E+01   -.345E-13 0.359E-01 0.513E-04
   -.116E-12 -.127E+02 0.424E+01   -.913E-14 0.120E+02 -.560E+01   0.000E+00 0.678E+00 0.133E+01   -.246E-13 0.206E-01 0.459E-02
   -.120E-12 0.127E+02 -.424E+01   -.118E-13 -.120E+02 0.560E+01   0.000E+00 -.678E+00 -.133E+01   -.347E-13 -.206E-01 -.459E-02
   -.111E-12 -.772E-12 0.190E-12   -.165E-14 0.639E-13 -.103E-12   0.000E+00 -.203E-19 -.136E-19   -.282E-13 -.301E-12 -.482E-13
   -.105E-12 -.886E+02 0.649E+01   0.690E-14 0.841E+02 -.570E+01   0.000E+00 0.448E+01 -.743E+00   -.362E-13 0.462E-01 -.139E-01
   -.132E-12 -.779E+02 0.105E+02   -.754E-15 0.714E+02 -.972E+01   0.000E+00 0.635E+01 -.807E+00   -.354E-13 0.351E-02 -.193E-01
   -.113E-12 0.101E-11 0.283E-11   -.415E-14 0.284E-13 0.243E-12   0.000E+00 0.339E-20 -.169E-20   -.232E-13 -.108E-12 -.264E-12
   -.117E-12 0.779E+02 -.105E+02   -.170E-13 -.714E+02 0.972E+01   0.000E+00 -.635E+01 0.807E+00   -.128E-13 -.351E-02 0.193E-01
   -.117E-12 0.886E+02 -.649E+01   -.191E-13 -.841E+02 0.570E+01   0.000E+00 -.448E+01 0.743E+00   -.161E-13 -.462E-01 0.139E-01
   0.768E-14 0.241E+02 -.299E+02   0.251E-13 -.239E+02 0.301E+02   0.000E+00 -.135E+00 -.237E+00   -.618E-14 -.306E-01 0.252E-01
   0.390E-14 0.146E-12 -.439E-12   0.318E-14 -.639E-13 0.342E-13   0.000E+00 -.271E-19 0.271E-19   -.825E-14 -.137E-12 0.194E-12
   0.883E-15 -.241E+02 0.299E+02   -.383E-13 0.239E+02 -.301E+02   0.000E+00 0.135E+00 0.237E+00   -.108E-13 0.306E-01 -.252E-01
   0.531E-14 -.294E+02 0.300E+02   0.300E-13 0.290E+02 -.304E+02   0.000E+00 0.366E+00 0.516E+00   -.405E-14 0.352E-01 -.192E-01
   0.557E-14 -.364E-12 0.220E-12   0.846E-15 -.853E-13 -.259E-12   0.000E+00 0.000E+00 0.542E-19   0.369E-14 0.223E-12 0.369E-13
   0.116E-13 0.294E+02 -.300E+02   -.488E-13 -.290E+02 0.304E+02   0.000E+00 -.366E+00 -.516E+00   0.428E-14 -.352E-01 0.192E-01
 -----------------------------------------------------------------------------------------------
   -.244E-11 -.895E-11 -.825E-10   -.118E-13 -.107E-12 -.533E-13   0.000E+00 0.777E-15 0.000E+00   -.556E-12 -.828E-13 -.302E-12
 
 
 POSITION                                       TOTAL-FORCE (eV/Angst)
 -----------------------------------------------------------------------------------
      0.00000      3.97921      3.77992         0.000000     -0.132845      0.049197
      0.00000      3.81473      0.08734         0.000000      0.132845     -0.049197
      0.00000      7.63727      3.89709         0.000000      0.187418      0.000417
      0.00000      7.72835      0.05678         0.000000      0.073596     -0.088790
      0.00000      7.86956     -3.94405         0.000000     -0.073596      0.088790
      0.00000      0.15668     -0.02983         0.000000     -0.187418     -0.000417
     -1.93956      5.85297     -5.81590         0.000000      0.000000     -0.000000
     -1.93956      9.75631     -1.93665         0.000000     -0.183370      0.005327
     -1.93956      5.84160     -1.95062         0.000000      0.183370     -0.005327
     -1.93956      5.85675      1.91536         0.000000     -0.011576     -0.047340
     -1.93956      1.95099     -1.93863         0.000000      0.000000     -0.000000
     -1.93956      1.93719      1.95190         0.000000      0.011576      0.047340
     -1.93956      9.71656     -3.82659         0.000000      0.018400     -0.018959
     -1.93956      9.72156      0.00634         0.000000     -0.010552     -0.098249
     -1.93956      5.87636     -3.89361         0.000000      0.010552      0.098249
     -1.93956      5.88135     -0.06068         0.000000     -0.018400      0.018959
     -1.93956      5.86564      3.88318         0.000000     -0.002870     -0.024520
     -1.93956      1.92831     -0.01592         0.000000      0.002870      0.024520
     -1.93956      7.79896     -1.94364         0.000000      0.000000     -0.000000
     -1.93956      7.84121      1.91166         0.000000      0.008475      0.034202
     -1.93956      3.96874     -1.94818         0.000000     -0.161226     -0.021896
     -1.93956      3.89697      1.93363         0.000000      0.000000     -0.000000
     -1.93956      3.82520      5.81544         0.000000      0.161226      0.021896
     -1.93956      7.75670     -5.79893         0.000000     -0.008475     -0.034202
      0.00000      9.71542     -1.94241         0.000000     -0.006812      0.033976
      0.00000      5.85297     -5.81590         0.000000      0.000000     -0.000000
      0.00000      5.88249     -1.94486         0.000000      0.006812     -0.033976
      0.00000      5.87478      1.92629         0.000000     -0.050489      0.055710
      0.00000      1.95099     -1.93863         0.000000      0.000000     -0.000000
      0.00000      1.91917      1.94097         0.000000      0.050489     -0.055710
 -----------------------------------------------------------------------------------
    total drift:                               -0.000000     -0.000000     -0.000000


--------------------------------------------------------------------------------------------------------



  FREE ENERGIE OF THE ION-ELECTRON SYSTEM (eV)
  ---------------------------------------------------
  free  energy   TOTEN  =      -220.33164799 eV

  energy  without entropy=     -220.33164799  energy(sigma->0) =     -220.33164799
 


--------------------------------------------------------------------------------------------------------


    POTLOK:  cpu time    0.0882: real time    0.0886


--------------------------------------------------------------------------------------------------------


     LOOP+:  cpu time   95.1381: real time   95.5140
    4ORBIT:  cpu time    0.0000: real time    0.0000
 


 total charge     
 
# of ion       s       p       d       f       tot
--------------------------------------------------
    1        2.000   5.696   0.489   0.188   8.373
    2        2.000   5.696   0.489   0.188   8.373
    3        2.001   5.698   0.501   0.193   8.393
    4        2.001   5.701   0.498   0.195   8.394
    5        2.001   5.701   0.498   0.195   8.394
    6        2.002   5.698   0.501   0.193   8.393
    7        0.340   0.531   4.860   0.000   5.731
    8        0.341   0.526   4.861   0.000   5.729
    9        0.341   0.526   4.861   0.000   5.729
   10        0.407   0.595   8.333   0.000   9.335
   11        0.412   0.603   8.324   0.000   9.339
   12        0.407   0.595   8.333   0.000   9.335
   13        1.564   3.451   0.000   0.000   5.015
   14        1.562   3.459   0.000   0.000   5.021
   15        1.562   3.459   0.000   0.000   5.021
   16        1.564   3.451   0.000   0.000   5.015
   17        1.558   3.459   0.000   0.000   5.017
   18        1.558   3.459   0.000   0.000   5.017
   19        1.561   3.460   0.000   0.000   5.021
   20        1.562   3.458   0.000   0.000   5.020
   21        1.564   3.447   0.000   0.000   5.011
   22        1.557   3.452   0.000   0.000   5.010
   23        1.564   3.447   0.000   0.000   5.011
   24        1.562   3.458   0.000   0.000   5.020
   25        1.566   3.447   0.000   0.000   5.013
   26        1.566   3.450   0.000   0.000   5.015
   27        1.566   3.447   0.000   0.000   5.013
   28        1.558   3.462   0.000   0.000   5.019
   29        1.559   3.454   0.000   0.000   5.013
   30        1.558   3.462   0.000   0.000   5.019
--------------------------------------------------
tot         42.361  99.750  42.547   1.151 185.809

 


 magnetization (x)
 
# of ion       s       p       d       f       tot
--------------------------------------------------
    1       -0.000   0.000   0.003   0.002   0.006
    2       -0.000   0.000   0.003   0.002   0.006
    3        0.000   0.001   0.006   0.004   0.011
    4        0.001   0.001   0.011   0.005   0.018
    5        0.001   0.001   0.011   0.005   0.018
    6        0.000   0.001   0.006   0.004   0.011
    7        0.022   0.023   3.397   0.000   3.442
    8        0.023   0.020   3.391   0.000   3.434
    9        0.023   0.020   3.391   0.000   3.434
   10        0.015   0.010   1.615   0.000   1.640
   11        0.018   0.011   1.572   0.000   1.601
   12        0.015   0.010   1.615   0.000   1.640
   13        0.005  -0.047   0.000   0.000  -0.041
   14        0.002  -0.029   0.000   0.000  -0.027
   15        0.002  -0.029   0.000   0.000  -0.027
   16        0.005  -0.047   0.000   0.000  -0.042
   17        0.007  -0.013   0.000   0.000  -0.006
   18        0.007  -0.013   0.000   0.000  -0.006
   19        0.001  -0.022   0.000   0.000  -0.020
   20        0.005  -0.022   0.000   0.000  -0.017
   21        0.005  -0.034   0.000   0.000  -0.029
   22        0.007   0.001   0.000   0.000   0.008
   23        0.005  -0.034   0.000   0.000  -0.029
   24        0.005  -0.022   0.000   0.000  -0.017
   25        0.004  -0.062   0.000   0.000  -0.058
   26        0.004  -0.058   0.000   0.000  -0.053
   27        0.004  -0.062   0.000   0.000  -0.058
   28        0.006  -0.010   0.000   0.000  -0.004
   29        0.007  -0.027   0.000   0.000  -0.020
   30        0.006  -0.010   0.000   0.000  -0.004
--------------------------------------------------
tot          0.206  -0.439  15.023   0.022  14.811

 
 BZINTS: Fermi energy:  7.691022;225.000000 electrons
         Band energy:-332.480723;  BLOECHL correction: -0.166132

 total amount of memory used by VASP MPI-rank0    75865. kBytes
=======================================================================

   base      :      30000. kBytes
   nonlr-proj:       6855. kBytes
   fftplans  :       2686. kBytes
   grid      :       7550. kBytes
   one-center:        294. kBytes
   wavefun   :      28480. kBytes
 
  
  
 General timing and accounting informations for this job:
 ========================================================
  
                  Total CPU time used (sec):      104.059
                            User time (sec):      101.261
                          System time (sec):        2.798
                         Elapsed time (sec):      104.584
  
                   Maximum memory used (kb):      134364.
                   Average memory used (kb):           0.
  
                          Minor page faults:        41949
                          Major page faults:            0
                 Voluntary context switches:         1511
