       N       E                     dE             d eps       ncg     rms          rms(c)
DAV:   1     0.226385423203E+04    0.22639E+04   -0.56272E+04  5000   0.251E+03
DAV:   2     0.715757440654E+03   -0.15481E+04   -0.14059E+04  5296   0.604E+02
DAV:   3     0.113136354282E+03   -0.60262E+03   -0.54814E+03  5328   0.308E+02
DAV:   4    -0.120385687264E+03   -0.23352E+03   -0.22269E+03  7776   0.156E+02
DAV:   5    -0.162567778037E+03   -0.42182E+02   -0.40469E+02  8674   0.803E+01    0.670E+01
RMM:   6    -0.145106137552E+03    0.17462E+02   -0.48844E+02  8110   0.106E+02    0.909E+01
RMM:   7    -0.141001952204E+03    0.41042E+01   -0.84657E+01  7824   0.352E+01    0.393E+01
RMM:   8    -0.138146942684E+03    0.28550E+01   -0.24852E+01  7013   0.316E+01    0.198E+01
RMM:   9    -0.139657308269E+03   -0.15104E+01   -0.14702E+01  7724   0.157E+01    0.101E+01
RMM:  10    -0.139917795299E+03   -0.26049E+00   -0.25569E+00  8357   0.556E+00    0.620E+00
RMM:  11    -0.140065938848E+03   -0.14814E+00   -0.13157E+00  8235   0.384E+00    0.314E+00
RMM:  12    -0.140146534294E+03   -0.80595E-01   -0.45005E-01  8345   0.237E+00    0.143E+00
RMM:  13    -0.140166842463E+03   -0.20308E-01   -0.15450E-01  7879   0.139E+00    0.117E+00
RMM:  14    -0.140170925149E+03   -0.40827E-02   -0.73593E-02  7329   0.121E+00    0.625E-01
RMM:  15    -0.140176243783E+03   -0.53186E-02   -0.37665E-02  6708   0.641E-01    0.353E-01
RMM:  16    -0.140177938297E+03   -0.16945E-02   -0.17929E-02  5452   0.464E-01    0.193E-01
RMM:  17    -0.140178745027E+03   -0.80673E-03   -0.12404E-02  4832   0.410E-01    0.178E-01
RMM:  18    -0.140179640362E+03   -0.89534E-03   -0.76821E-03  4651   0.381E-01
   1 F= -.14017964E+03 E0= -.14017964E+03  d E =0.000000E+00  mag=     7.0031
