 vasp.5.4.4.18Apr17-6-g9f103f2a35 (build Oct 03 2018 13:58:34) complex          
  
 executed on             LinuxIFC date 2019.06.04  00:40:02
 running on   40 total cores
 distrk:  each k-point on   20 cores,    2 groups
 distr:  one band on NCORES_PER_BAND=  10 cores,    2 groups


--------------------------------------------------------------------------------------------------------


 INCAR:
 POTCAR:    PAW_PBE La 06Sep2000                  
 POTCAR:    PAW_PBE Mn 06Sep2000                  
 POTCAR:    PAW_PBE Ni 02Aug2007                  
 POTCAR:    PAW_PBE O 08Apr2002                   

 ----------------------------------------------------------------------------- 
|                                                                             |
|           W    W    AA    RRRRR   N    N  II  N    N   GGGG   !!!           |
|           W    W   A  A   R    R  NN   N  II  NN   N  G    G  !!!           |
|           W    W  A    A  R    R  N N  N  II  N N  N  G       !!!           |
|           W WW W  AAAAAA  RRRRR   N  N N  II  N  N N  G  GGG   !            |
|           WW  WW  A    A  R   R   N   NN  II  N   NN  G    G                |
|           W    W  A    A  R    R  N    N  II  N    N   GGGG   !!!           |
|                                                                             |
|      You have enabled k-point parallelism (KPAR>1).                         |
|      This developmental code was originally  written by Paul Kent at ORNL,  |
|      and carefully double checked in Vienna.                                |
|      GW as well as linear response parallelism added by Martijn Marsman     |
|      and Georg Kresse.                                                      |
|      Carefully verify results versus KPAR=1.                                |
|      Report problems to Paul Kent and Vienna.                               |
|                                                                             |
 ----------------------------------------------------------------------------- 

 POTCAR:    PAW_PBE La 06Sep2000                  
   VRHFIN =La : [core=Kr4d]                                                     
   LEXCH  = PE                                                                  
   EATOM  =   865.9763 eV,   63.6475 Ry                                         
                                                                                
   TITEL  = PAW_PBE La 06Sep2000                                                
   LULTRA =        F    use ultrasoft PP ?                                      
   IUNSCR =        1    unscreen: 0-lin 1-nonlin 2-no                           
   RPACOR =    2.300    partial core radius                                     
   POMASS =  138.900; ZVAL   =   11.000    mass and valenz                      
   RCORE  =    2.800    outmost cutoff radius                                   
   RWIGS  =    2.900; RWIGS  =    1.535    wigner-seitz radius (au A)           
   ENMAX  =  219.292; ENMIN  =  164.469 eV                                      
   RCLOC  =    1.601    cutoff for local pot                                    
   LCOR   =        T    correct aug charges                                     
   LPAW   =        T    paw PP                                                  
   EAUG   =  583.575                                                            
   DEXC   =    0.000                                                            
   RMAX   =    2.853    core radius for proj-oper                               
   RAUG   =    1.300    factor for augmentation sphere                          
   RDEP   =    2.802    radius for radial grids                                 
   RDEPT  =    2.156    core radius for aug-charge                              
                                                                                
   Atomic configuration                                                         
   14 entries                                                                   
     n  l   j            E        occ.                                          
     1  0  0.50    -38741.0879   2.0000                                         
     2  0  0.50     -6166.6801   2.0000                                         
     2  1  1.50     -5526.1593   6.0000                                         
     3  0  0.50     -1319.0200   2.0000                                         
     3  1  1.50     -1114.5963   6.0000                                         
     3  2  2.50      -821.1793  10.0000                                         
     4  0  0.50      -266.3851   2.0000                                         
     4  1  1.50      -199.9276   6.0000                                         
     4  2  2.50      -103.8239  10.0000                                         
     5  0  0.50       -38.9172   2.0000                                         
     6  0  0.50        -3.6792   2.0000                                         
     5  1  1.50       -22.3948   6.0000                                         
     5  2  2.50        -3.0911   0.9999                                         
     4  3  2.50        -4.3603   0.0001                                         
   Description                                                                  
     l       E           TYP  RCUT    TYP  RCUT                                 
     0    -38.9171645     23  2.800                                             
     0     -3.6792381     23  2.800                                             
     1    -22.3948300     23  2.500                                             
     1     27.2116520     23  2.500                                             
     2     -3.0910934     23  2.500                                             
     2      1.0119135     23  2.500                                             
     3     -4.3602911     23  2.800                                             
     3     -5.7208737     23  2.800                                             
  local pseudopotential read in
  partial core-charges read in
  partial kinetic energy density read in
  atomic valenz-charges read in
  non local Contribution for L=           0  read in
    real space projection operators read in
  non local Contribution for L=           0  read in
    real space projection operators read in
  non local Contribution for L=           1  read in
    real space projection operators read in
  non local Contribution for L=           1  read in
    real space projection operators read in
  non local Contribution for L=           2  read in
    real space projection operators read in
  non local Contribution for L=           2  read in
    real space projection operators read in
  non local Contribution for L=           3  read in
    real space projection operators read in
  non local Contribution for L=           3  read in
    real space projection operators read in
    PAW grid and wavefunctions read in
 
   number of l-projection  operators is LMAX  =           8
   number of lm-projection operators is LMMAX =          32
 
 POTCAR:    PAW_PBE Mn 06Sep2000                  
   VRHFIN =Mn: d6 s1                                                            
   LEXCH  = PE                                                                  
   EATOM  =   416.7541 eV,   30.6306 Ry                                         
                                                                                
   TITEL  = PAW_PBE Mn 06Sep2000                                                
   LULTRA =        F    use ultrasoft PP ?                                      
   IUNSCR =        1    unscreen: 0-lin 1-nonlin 2-no                           
   RPACOR =    2.000    partial core radius                                     
   POMASS =   54.938; ZVAL   =    7.000    mass and valenz                      
   RCORE  =    2.300    outmost cutoff radius                                   
   RWIGS  =    2.500; RWIGS  =    1.323    wigner-seitz radius (au A)           
   ENMAX  =  269.864; ENMIN  =  202.398 eV                                      
   RCLOC  =    1.725    cutoff for local pot                                    
   LCOR   =        T    correct aug charges                                     
   LPAW   =        T    paw PP                                                  
   EAUG   =  500.711                                                            
   DEXC   =    0.000                                                            
   RMAX   =    2.343    core radius for proj-oper                               
   RAUG   =    1.300    factor for augmentation sphere                          
   RDEP   =    2.338    radius for radial grids                                 
   RDEPT  =    1.911    core radius for aug-charge                              
                                                                                
   Atomic configuration                                                         
    9 entries                                                                   
     n  l   j            E        occ.                                          
     1  0  0.50     -6424.8288   2.0000                                         
     2  0  0.50      -739.1154   2.0000                                         
     2  1  1.50      -625.3949   6.0000                                         
     3  0  0.50       -81.6100   2.0000                                         
     3  1  1.50       -50.4667   6.0000                                         
     3  2  2.50        -3.3745   6.0000                                         
     4  0  0.50        -4.1331   1.0000                                         
     4  1  0.50        -4.0817   0.0000                                         
     4  3  2.50        -1.3606   0.0000                                         
   Description                                                                  
     l       E           TYP  RCUT    TYP  RCUT                                 
     2     -3.3744664     23  2.300                                             
     2     -4.7350490     23  2.300                                             
     0     -4.1331408     23  2.300                                             
     0      7.6656614     23  2.300                                             
     1     -2.7211652     23  2.300                                             
     1     20.4087390     23  2.300                                             
  local pseudopotential read in
  partial core-charges read in
  partial kinetic energy density read in
  atomic valenz-charges read in
  non local Contribution for L=           2  read in
    real space projection operators read in
  non local Contribution for L=           2  read in
    real space projection operators read in
  non local Contribution for L=           0  read in
    real space projection operators read in
  non local Contribution for L=           0  read in
    real space projection operators read in
  non local Contribution for L=           1  read in
    real space projection operators read in
  non local Contribution for L=           1  read in
    real space projection operators read in
    PAW grid and wavefunctions read in
 
   number of l-projection  operators is LMAX  =           6
   number of lm-projection operators is LMMAX =          18
 
 POTCAR:    PAW_PBE Ni 02Aug2007                  
   VRHFIN =Ni:                                                                  
   LEXCH  = PE                                                                  
   EATOM  =  1077.6739 eV,   79.2068 Ry                                         
                                                                                
   TITEL  = PAW_PBE Ni 02Aug2007                                                
   LULTRA =        F    use ultrasoft PP ?                                      
   IUNSCR =        1    unscreen: 0-lin 1-nonlin 2-no                           
   RPACOR =    2.000    partial core radius                                     
   POMASS =   58.690; ZVAL   =   10.000    mass and valenz                      
   RCORE  =    2.300    outmost cutoff radius                                   
   RWIGS  =    2.430; RWIGS  =    1.286    wigner-seitz radius (au A)           
   ENMAX  =  269.532; ENMIN  =  202.149 eV                                      
   RCLOC  =    1.201    cutoff for local pot                                    
   LCOR   =        T    correct aug charges                                     
   LPAW   =        T    paw PP                                                  
   EAUG   =  544.565                                                            
   DEXC   =    0.000                                                            
   RMAX   =    2.357    core radius for proj-oper                               
   RAUG   =    1.300    factor for augmentation sphere                          
   RDEP   =    2.390    radius for radial grids                                 
   RDEPT  =    1.838    core radius for aug-charge                              
                                                                                
   Atomic configuration                                                         
    9 entries                                                                   
     n  l   j            E        occ.                                          
     1  0  0.50     -8206.4253   2.0000                                         
     2  0  0.50      -976.1748   2.0000                                         
     2  1  1.50      -839.0571   6.0000                                         
     3  0  0.50      -105.9991   2.0000                                         
     3  1  1.50       -66.4603   6.0000                                         
     3  2  2.50        -4.6458   9.0000                                         
     4  0  0.50        -4.4926   1.0000                                         
     4  1  1.50        -4.0817   0.0000                                         
     4  3  2.50        -1.3606   0.0000                                         
   Description                                                                  
     l       E           TYP  RCUT    TYP  RCUT                                 
     2     -4.6457903     23  2.300                                             
     2     -6.0063729     23  2.300                                             
     0     -4.4925590     23  2.300                                             
     0      5.0102601     23  2.300                                             
     1     -2.7211652     23  2.300                                             
     1     16.5183231     23  2.300                                             
  local pseudopotential read in
  partial core-charges read in
  partial kinetic energy density read in
  atomic valenz-charges read in
  non local Contribution for L=           2  read in
    real space projection operators read in
  non local Contribution for L=           2  read in
    real space projection operators read in
  non local Contribution for L=           0  read in
    real space projection operators read in
  non local Contribution for L=           0  read in
    real space projection operators read in
  non local Contribution for L=           1  read in
    real space projection operators read in
  non local Contribution for L=           1  read in
    real space projection operators read in
    PAW grid and wavefunctions read in
 
   number of l-projection  operators is LMAX  =           6
   number of lm-projection operators is LMMAX =          18
 
 POTCAR:    PAW_PBE O 08Apr2002                   
   VRHFIN =O: s2p4                                                              
   LEXCH  = PE                                                                  
   EATOM  =   432.3788 eV,   31.7789 Ry                                         
                                                                                
   TITEL  = PAW_PBE O 08Apr2002                                                 
   LULTRA =        F    use ultrasoft PP ?                                      
   IUNSCR =        1    unscreen: 0-lin 1-nonlin 2-no                           
   RPACOR =    1.200    partial core radius                                     
   POMASS =   16.000; ZVAL   =    6.000    mass and valenz                      
   RCORE  =    1.520    outmost cutoff radius                                   
   RWIGS  =    1.550; RWIGS  =    0.820    wigner-seitz radius (au A)           
   ENMAX  =  400.000; ENMIN  =  300.000 eV                                      
   ICORE  =        2    local potential                                         
   LCOR   =        T    correct aug charges                                     
   LPAW   =        T    paw PP                                                  
   EAUG   =  605.392                                                            
   DEXC   =    0.000                                                            
   RMAX   =    1.553    core radius for proj-oper                               
   RAUG   =    1.300    factor for augmentation sphere                          
   RDEP   =    1.550    radius for radial grids                                 
   RDEPT  =    1.329    core radius for aug-charge                              
                                                                                
   Atomic configuration                                                         
    4 entries                                                                   
     n  l   j            E        occ.                                          
     1  0  0.50      -514.6923   2.0000                                         
     2  0  0.50       -23.9615   2.0000                                         
     2  1  0.50        -9.0305   4.0000                                         
     3  2  1.50        -9.5241   0.0000                                         
   Description                                                                  
     l       E           TYP  RCUT    TYP  RCUT                                 
     0    -23.9615318     23  1.200                                             
     0     -9.5240782     23  1.200                                             
     1     -9.0304911     23  1.520                                             
     1      8.1634956     23  1.520                                             
     2     -9.5240782      7  1.500                                             
  local pseudopotential read in
  partial core-charges read in
  partial kinetic energy density read in
  kinetic energy density of atom read in
  atomic valenz-charges read in
  non local Contribution for L=           0  read in
    real space projection operators read in
  non local Contribution for L=           0  read in
    real space projection operators read in
  non local Contribution for L=           1  read in
    real space projection operators read in
  non local Contribution for L=           1  read in
    real space projection operators read in
    PAW grid and wavefunctions read in
 
   number of l-projection  operators is LMAX  =           4
   number of lm-projection operators is LMMAX =           8
 
 Optimization of the real space projectors (new method)

 maximal supplied QI-value         = 13.42
 optimisation between [QCUT,QGAM] = [ 11.67, 23.35] = [ 38.16,152.62] Ry 
 Optimized for a Real-space Cutoff    1.63 Angstroem

   l    n(q)    QCUT    max X(q) W(low)/X(q) W(high)/X(q)  e(spline) 
   0     11    11.673    13.882    0.27E-04    0.79E-05    0.11E-06
   0     11    11.673    12.184    0.39E-04    0.13E-04    0.19E-06
   1     11    11.673     4.523    0.73E-05    0.76E-05    0.12E-06
   1     11    11.673     4.424    0.87E-05    0.13E-04    0.19E-06
   2     10    11.673    52.481    0.65E-04    0.36E-04    0.18E-06
   2     10    11.673    38.501    0.61E-04    0.33E-04    0.17E-06
   3     10    11.673    65.631    0.17E-03    0.14E-03    0.37E-06
   3     10    11.673    56.854    0.17E-03    0.14E-03    0.37E-06
 Optimization of the real space projectors (new method)

 maximal supplied QI-value         = 16.25
 optimisation between [QCUT,QGAM] = [ 11.54, 23.24] = [ 37.28,151.24] Ry 
 Optimized for a Real-space Cutoff    1.53 Angstroem

   l    n(q)    QCUT    max X(q) W(low)/X(q) W(high)/X(q)  e(spline) 
   2     10    11.539   110.144    0.12E-03    0.13E-03    0.25E-06
   2     10    11.539   103.200    0.12E-03    0.13E-03    0.25E-06
   0     11    11.539    68.437    0.46E-04    0.21E-04    0.32E-06
   0     11    11.539    33.971    0.37E-04    0.19E-04    0.29E-06
   1     10    11.539    17.065    0.51E-04    0.22E-04    0.13E-06
   1     10    11.539    12.540    0.41E-04    0.18E-04    0.11E-06
 Optimization of the real space projectors (new method)

 maximal supplied QI-value         = 16.25
 optimisation between [QCUT,QGAM] = [ 11.54, 23.24] = [ 37.28,151.24] Ry 
 Optimized for a Real-space Cutoff    1.45 Angstroem

   l    n(q)    QCUT    max X(q) W(low)/X(q) W(high)/X(q)  e(spline) 
   2      9    11.539    60.317    0.19E-03    0.47E-04    0.16E-06
   2      9    11.539    55.921    0.19E-03    0.48E-04    0.16E-06
   0     10    11.539    51.690    0.80E-04    0.50E-04    0.24E-06
   0     10    11.539    30.015    0.73E-04    0.45E-04    0.22E-06
   1     10    11.539    18.849    0.87E-04    0.16E-03    0.71E-07
   1     10    11.539    14.624    0.73E-04    0.13E-03    0.64E-07
 Optimization of the real space projectors (new method)

 maximal supplied QI-value         = 24.76
 optimisation between [QCUT,QGAM] = [ 11.64, 23.27] = [ 37.91,151.63] Ry 
 Optimized for a Real-space Cutoff    1.14 Angstroem

   l    n(q)    QCUT    max X(q) W(low)/X(q) W(high)/X(q)  e(spline) 
   0      8    11.635    20.381    0.10E-03    0.33E-03    0.24E-06
   0      8    11.635    15.268    0.11E-03    0.35E-03    0.26E-06
   1      7    11.635     5.964    0.24E-03    0.31E-03    0.30E-06
   1      7    11.635     5.382    0.22E-03    0.25E-03    0.26E-06
  PAW_PBE La 06Sep2000                  :
 energy of atom  1       EATOM= -865.9763
 kinetic energy error for atom=    0.0009 (will be added to EATOM!!)
  PAW_PBE Mn 06Sep2000                  :
 energy of atom  2       EATOM= -416.7541
 kinetic energy error for atom=    0.0024 (will be added to EATOM!!)
  PAW_PBE Ni 02Aug2007                  :
 energy of atom  3       EATOM=-1077.6739
 kinetic energy error for atom=    0.0030 (will be added to EATOM!!)
  PAW_PBE O 08Apr2002                   :
 energy of atom  4       EATOM= -432.3788
 kinetic energy error for atom=    0.0208 (will be added to EATOM!!)
 
 
 POSCAR: SCEL6_6_1_1_0_5_3/2                     
  positions in direct lattice
  velocities in cartesian coordinates
 exchange correlation table for  LEXCH =        8
   RHO(1)=    0.500       N(1)  =     2000
   RHO(2)=  100.500       N(2)  =     4000
 


--------------------------------------------------------------------------------------------------------


 ion  position               nearest neighbor table
   1  0.664  0.167  0.329-  19 2.72  30 2.72  18 2.72  27 2.76  15 2.76  24 2.76  24 2.76  17 2.77
                            29 2.77  14 2.79  26 2.79  23 2.79   8 3.33  11 3.36  12 3.37  12 3.37
   2  0.333  0.339  0.667-  28 2.73  17 2.73  29 2.73  16 2.73  22 2.76  24 2.76  23 2.76  23 2.76
                            25 2.78  13 2.78  14 2.78  26 2.78  11 3.35  12 3.35  10 3.35  10 3.35
   3  0.002  0.505  0.004-  21 2.72  15 2.72  27 2.72  18 2.76  30 2.76  22 2.76  22 2.76  16 2.77
                            28 2.77  13 2.79  25 2.79  23 2.79   9 3.33  12 3.36  11 3.37  11 3.37
   4  0.664  0.662  0.329-  22 2.72  30 2.72  18 2.72  27 2.76  15 2.76  21 2.76  21 2.76  17 2.77
                            29 2.77  14 2.79  26 2.79  20 2.79   8 3.33  11 3.36  12 3.37  12 3.37
   5  0.333  0.828  0.667-  28 2.73  16 2.73  17 2.73  29 2.73  19 2.76  21 2.76  20 2.76  20 2.76
                            25 2.78  14 2.78  13 2.78  26 2.78  11 3.35  12 3.35  10 3.35  10 3.35
   6  0.002  1.000  0.004-  24 2.72  15 2.72  27 2.72  18 2.76  30 2.76  19 2.76  19 2.76  16 2.77
                            28 2.77  13 2.79  25 2.79  20 2.79   9 3.33  12 3.36  11 3.37  11 3.37
   7  0.833  0.083  0.667-  20 1.97  23 1.97  13 1.99  26 1.99  25 1.99  14 1.99   2 3.40   2 3.40
                             5 3.40   5 3.40   6 3.42   3 3.42   4 3.42   1 3.42
   8  0.500  0.250  0.000-  25 1.91  13 1.91  19 1.91  22 1.91  30 1.92  18 1.92   1 3.33   4 3.33
                             3 3.39   6 3.39   3 3.39   6 3.39   2 3.40   5 3.40
   9  0.166  0.916  0.333-  26 1.91  14 1.91  24 1.91  21 1.91  15 1.92  27 1.92   6 3.33   3 3.33
                             4 3.39   1 3.39   4 3.39   1 3.39   2 3.40   5 3.40
  10  0.833  0.583  0.667-  16 1.91  29 1.91  28 1.91  17 1.91  20 1.93  23 1.93   2 3.35   2 3.35
                             5 3.35   5 3.35   3 3.39   6 3.39   1 3.39   4 3.39
  11  0.500  0.750  1.000-  27 1.98  15 1.98  28 1.98  16 1.98  19 1.99  22 1.99   5 3.35   2 3.35
                             4 3.36   1 3.36   6 3.37   3 3.37   6 3.37   3 3.37
  12  0.167  0.417  0.334-  18 1.98  30 1.98  29 1.98  17 1.98  24 1.99  21 1.99   5 3.35   2 3.35
                             3 3.36   6 3.36   1 3.37   4 3.37   1 3.37   4 3.37
  13  0.663  0.168  0.837-   8 1.91   7 1.99   2 2.78   5 2.78   3 2.79   6 2.79
  14  0.004  0.998  0.497-   9 1.91   7 1.99   2 2.78   5 2.78   4 2.79   1 2.79
  15  0.331  0.834  0.168-   9 1.92  11 1.98   3 2.72   6 2.72   4 2.76   1 2.76
  16  0.669  0.665  0.830-  10 1.91  11 1.98   5 2.73   2 2.73   6 2.77   3 2.77
  17  0.998  0.502  0.504-  10 1.91  12 1.98   5 2.73   2 2.73   1 2.77   4 2.77
  18  0.336  0.332  0.165-   8 1.92  12 1.98   1 2.72   4 2.72   6 2.76   3 2.76
  19  0.500  0.005  1.000-   8 1.91  11 1.99   1 2.72   5 2.76   6 2.76   6 2.76
  20  0.833  0.831  0.667-  10 1.93   7 1.97   5 2.76   5 2.76   6 2.79   4 2.79
  21  0.167  0.672  0.334-   9 1.91  12 1.99   3 2.72   5 2.76   4 2.76   4 2.76
  22  0.500  0.495  1.000-   8 1.91  11 1.99   4 2.72   2 2.76   3 2.76   3 2.76
  23  0.833  0.335  0.667-  10 1.93   7 1.97   2 2.76   2 2.76   3 2.79   1 2.79
  24  0.167  0.162  0.334-   9 1.91  12 1.99   6 2.72   2 2.76   1 2.76   1 2.76
  25  0.174  0.168  0.837-   8 1.91   7 1.99   2 2.78   5 2.78   3 2.79   6 2.79
  26  0.493  0.998  0.497-   9 1.91   7 1.99   2 2.78   5 2.78   4 2.79   1 2.79
  27  0.838  0.834  0.168-   9 1.92  11 1.98   3 2.72   6 2.72   4 2.76   1 2.76
  28  0.161  0.665  0.830-  10 1.91  11 1.98   5 2.73   2 2.73   6 2.77   3 2.77
  29  0.506  0.502  0.504-  10 1.91  12 1.98   5 2.73   2 2.73   1 2.77   4 2.77
  30  0.829  0.332  0.165-   8 1.92  12 1.98   1 2.72   4 2.72   6 2.76   3 2.76
 
  LATTYP: Found a body centered orthorhombic cell.
 ALAT       =     5.5132926984
 B/A-ratio  =     1.4146263131
 C/A-ratio  =     2.9998013596
  
  Lattice vectors:
  
 A1 = (   7.7965861139,  -3.8996244663,   3.8980994504)
 A2 = (   3.8980994602,   3.8996244565,   7.7965861042)
 A3 = (  -7.7965861139,  -3.8996244565,  -3.8980994504)


Analysis of symmetry for initial positions (statically):
=====================================================================
 Subroutine PRICEL returns:
 Original cell was already a primitive cell.
 

 Routine SETGRP: Setting up the symmetry group for a 
 body centered orthorhombic supercell.


 Subroutine GETGRP returns: Found  8 space group operations
 (whereof  2 operations were pure point group operations)
 out of a pool of  8 trial point group operations.


The static configuration has the point symmetry C_1h.
 The point group associated with its full space group is D_2h.


Analysis of symmetry for dynamics (positions and initial velocities):
=====================================================================
 Subroutine PRICEL returns:
 Original cell was already a primitive cell.
 

 Routine SETGRP: Setting up the symmetry group for a 
 body centered orthorhombic supercell.


 Subroutine GETGRP returns: Found  8 space group operations
 (whereof  2 operations were pure point group operations)
 out of a pool of  8 trial point group operations.


The dynamic configuration has the point symmetry C_1h.
 The point group associated with its full space group is D_2h.


Analysis of structural, dynamic, and magnetic symmetry:
=====================================================================
 Subroutine PRICEL returns:
 Original cell was already a primitive cell.
 

 Routine SETGRP: Setting up the symmetry group for a 
 body centered orthorhombic supercell.


 Subroutine GETGRP returns: Found  8 space group operations
 (whereof  2 operations were pure point group operations)
 out of a pool of  8 trial point group operations.


The magnetic configuration has the point symmetry C_1h.
 The point group associated with its full space group is D_2h.


 Subroutine INISYM returns: Found  8 space group operations
 (whereof  2 operations are pure point group operations),
 and found     1 'primitive' translations

 
 
 KPOINTS: Automatic mesh                          

Automatic generation of k-mesh.
 generate k-points for:    4    3    2
Space group operators:
 irot       det(A)        alpha          n_x          n_y          n_z        tau_x        tau_y        tau_z
    1     1.000000     0.000001     1.000000     0.000000     0.000000     0.000000     0.000000     0.000000
    2    -1.000000   180.000000     0.707107     0.000000    -0.707107     0.000000     0.000000     0.000000
    3    -1.000000     0.000001     1.000000     0.000000     0.000000    -0.333333     0.166667     0.333333
    4     1.000000   180.000000     0.707107    -0.000000     0.707107     0.000000    -0.500000     0.000000
    5    -1.000000   180.000000     0.707107    -0.000000     0.707107     0.666667     0.666667     1.333333
    6     1.000000   180.000000    -0.000000    -1.000000    -0.000000     0.666667     0.666667     1.333333
    7    -1.000000   180.000000    -0.000000    -1.000000    -0.000000     0.000000    -0.500000     0.000000
    8     1.000000   180.000000     0.707107     0.000000    -0.707107    -0.333333     0.166667     0.333333
 
 Subroutine IBZKPT returns following result:
 ===========================================
 
 Found     12 irreducible k-points:
 
 Following reciprocal coordinates:
            Coordinates               Weight
  0.000000  0.000000  0.000000      1.000000
  0.250000  0.000000 -0.000000      2.000000
  0.500000  0.000000 -0.000000      2.000000
  0.000000  0.333333  0.000000      2.000000
  0.250000  0.333333 -0.000000      2.000000
  0.500000  0.333333  0.000000      4.000000
 -0.250000  0.333333  0.000000      2.000000
  0.000000 -0.000000  0.500000      1.000000
  0.250000 -0.000000  0.500000      2.000000
 -0.000000  0.333333  0.500000      2.000000
  0.250000  0.333333  0.500000      2.000000
 -0.250000  0.333333  0.500000      2.000000
 
 Following cartesian coordinates:
            Coordinates               Weight
  0.000000  0.000000  0.000000      1.000000
  0.042752 -0.000000 -0.021375      2.000000
  0.085505 -0.000000 -0.042750      2.000000
  0.014251  0.042739  0.014251      2.000000
  0.057004  0.042739 -0.007124      2.000000
  0.099756  0.042739 -0.028499      4.000000
 -0.028501  0.042739  0.035627      2.000000
  0.042754 -0.000000  0.042754      1.000000
  0.085507 -0.000000  0.021379      2.000000
  0.057006  0.042739  0.057006      2.000000
  0.099758  0.042739  0.035631      2.000000
  0.014254  0.042739  0.078381      2.000000
 
 TETIRR: Found     67 inequivalent tetrahedra from      144


--------------------------------------------------------------------------------------------------------




 Dimension of arrays:
   k-points           NKPTS =     12   k-points in BZ     NKDIM =     12   number of bands    NBANDS=    144
   number of dos      NEDOS =    301   number of ions     NIONS =     30
   non local maximal  LDIM  =      8   non local SUM 2l+1 LMDIM =     32
   total plane-waves  NPLWV = 181440
   max r-space proj   IRMAX =   9259   max aug-charges    IRDMAX=  26859
   dimension x,y,z NGX =    42 NGY =   60 NGZ =   72
   dimension x,y,z NGXF=    84 NGYF=  120 NGZF=  144
   support grid    NGXF=    84 NGYF=  120 NGZF=  144
   ions per type =               6   4   2  18
   NGX,Y,Z   is equivalent  to a cutoff of  12.66, 12.79, 12.53 a.u.
   NGXF,Y,Z  is equivalent  to a cutoff of  25.33, 25.58, 25.07 a.u.

 SYSTEM =  final                                   
 POSCAR =  SCEL6_6_1_1_0_5_3/2                     

 Startparameter for this run:
   NWRITE =      2    write-flag & timer
   PREC   = accura    normal or accurate (medium, high low for compatibility)
   ISTART =      0    job   : 0-new  1-cont  2-samecut
   ICHARG =      1    charge: 1-file 2-atom 10-const
   ISPIN  =      2    spin polarized calculation?
   LNONCOLLINEAR =      F non collinear calculations
   LSORBIT =      F    spin-orbit coupling
   INIWAV =      1    electr: 0-lowe 1-rand  2-diag
   LASPH  =      F    aspherical Exc in radial PAW
   METAGGA=      F    non-selfconsistent MetaGGA calc.

 Electronic Relaxation 1
   ENCUT  =  520.0 eV  38.22 Ry    6.18 a.u.  10.25 14.50 17.76*2*pi/ulx,y,z
   ENINI  =  520.0     initial cutoff
   ENAUG  =  605.4 eV  augmentation charge cutoff
   NELM   =    100;   NELMIN=  2; NELMDL= -5     # of ELM steps 
   EDIFF  = 0.1E-02   stopping-criterion for ELM
   LREAL  =      T    real-space projection
   NLSPLINE    = F    spline interpolate recip. space projectors
   LCOMPAT=      F    compatible to vasp.4.4
   GGA_COMPAT  = T    GGA compatible to vasp.4.4-vasp.4.6
   LMAXPAW     = -100 max onsite density
   LMAXMIX     =    6 max onsite mixed and CHGCAR
   VOSKOWN=      0    Vosko Wilk Nusair interpolation
   ROPT   =   -0.00025  -0.00025  -0.00025  -0.00025
 Ionic relaxation
   EDIFFG = 0.1E-01   stopping-criterion for IOM
   NSW    =      0    number of steps for IOM
   NBLOCK =      1;   KBLOCK =      1    inner block; outer block 
   IBRION =     -1    ionic relax: 0-MD 1-quasi-New 2-CG
   NFREE  =      0    steps in history (QN), initial steepest desc. (CG)
   ISIF   =      2    stress and relaxation
   IWAVPR =     10    prediction:  0-non 1-charg 2-wave 3-comb
   ISYM   =      2    0-nonsym 1-usesym 2-fastsym
   LCORR  =      T    Harris-Foulkes like correction to forces

   POTIM  = 0.5000    time-step for ionic-motion
   TEIN   =    0.0    initial temperature
   TEBEG  =    0.0;   TEEND  =   0.0 temperature during run
   SMASS  =  -3.00    Nose mass-parameter (am)
   estimated Nose-frequenzy (Omega)   =  0.10E-29 period in steps =****** mass=  -0.695E-27a.u.
   SCALEE = 1.0000    scale energy and forces
   NPACO  =    256;   APACO  = 16.0  distance and # of slots for P.C.
   PSTRESS=    0.0 pullay stress

  Mass of Ions in am
   POMASS = 138.90 54.94 58.69 16.00
  Ionic Valenz
   ZVAL   =  11.00  7.00 10.00  6.00
  Atomic Wigner-Seitz radii
   RWIGS  =  -1.00 -1.00 -1.00 -1.00
  virtual crystal weights 
   VCA    =   1.00  1.00  1.00  1.00
   NELECT =     222.0000    total number of electrons
   NUPDOWN=      -1.0000    fix difference up-down

 DOS related values:
   EMIN   =  10.00;   EMAX   =-10.00  energy-range for DOS
   EFERMI =   0.00
   ISMEAR =    -5;   SIGMA  =   0.05  broadening in eV -4-tet -1-fermi 0-gaus

 Electronic relaxation 2 (details)
   IALGO  =     68    algorithm
   LDIAG  =      T    sub-space diagonalisation (order eigenvalues)
   LSUBROT=      F    optimize rotation matrix (better conditioning)
   TURBO    =      0    0=normal 1=particle mesh
   IRESTART =      0    0=no restart 2=restart with 2 vectors
   NREBOOT  =      0    no. of reboots
   NMIN     =      0    reboot dimension
   EREF     =   0.00    reference energy to select bands
   IMIX   =      4    mixing-type and parameters
     AMIX     =   0.40;   BMIX     =  1.00
     AMIX_MAG =   1.60;   BMIX_MAG =  1.00
     AMIN     =   0.10
     WC   =   100.;   INIMIX=   1;  MIXPRE=   1;  MAXMIX= -45

 Intra band minimization:
   WEIMIN = 0.0000     energy-eigenvalue tresh-hold
   EBREAK =  0.17E-05  absolut break condition
   DEPER  =   0.30     relativ break condition  

   TIME   =   0.40     timestep for ELM

  volume/ion in A,a.u.               =      11.85        79.99
  Fermi-wavevector in a.u.,A,eV,Ry     =   1.399201  2.644106 26.636979  1.957763
  Thomas-Fermi vector in A             =   2.522284
 
 Write flags
   LWAVE        =      F    write WAVECAR
   LDOWNSAMPLE  =      F    k-point downsampling of WAVECAR
   LCHARG       =      T    write CHGCAR
   LVTOT        =      F    write LOCPOT, total local potential
   LVHAR        =      F    write LOCPOT, Hartree potential only
   LELF         =      F    write electronic localiz. function (ELF)
   LORBIT       =     11    0 simple, 1 ext, 2 COOP (PROOUT), +10 PAW based schemes


 Dipole corrections
   LMONO  =      F    monopole corrections only (constant potential shift)
   LDIPOL =      F    correct potential (dipole corrections)
   IDIPOL =      0    1-x, 2-y, 3-z, 4-all directions 
   EPSILON=  1.0000000 bulk dielectric constant

 LDA+U is selected, type is set to LDAUTYPE =  2
   angular momentum for each species LDAUL =     0    2    2    0
   U (eV)           for each species LDAUU =   0.0  3.9  6.2  0.0
   J (eV)           for each species LDAUJ =   0.0  0.0  0.0  0.0
 Exchange correlation treatment:
   GGA     =    --    GGA type
   LEXCH   =     8    internal setting for exchange type
   VOSKOWN=      0    Vosko Wilk Nusair interpolation
   LHFCALC =     F    Hartree Fock is set to
   LHFONE  =     F    Hartree Fock one center treatment
   AEXX    =    0.0000 exact exchange contribution

 Linear response parameters
   LEPSILON=     F    determine dielectric tensor
   LRPA    =     F    only Hartree local field effects (RPA)
   LNABLA  =     F    use nabla operator in PAW spheres
   LVEL    =     F    velocity operator in full k-point grid
   LINTERFAST=   F  fast interpolation
   KINTER  =     0    interpolate to denser k-point grid
   CSHIFT  =0.1000    complex shift for real part using Kramers Kronig
   OMEGAMAX=  -1.0    maximum frequency
   DEG_THRESHOLD= 0.2000000E-02 threshold for treating states as degnerate
   RTIME   =   -0.100 relaxation time in fs
  (WPLASMAI=    0.000 imaginary part of plasma frequency in eV, 0.658/RTIME)
   DFIELD  = 0.0000000 0.0000000 0.0000000 field for delta impulse in time
 
 Orbital magnetization related:
   ORBITALMAG=     F  switch on orbital magnetization
   LCHIMAG   =     F  perturbation theory with respect to B field
   DQ        =  0.001000  dq finite difference perturbation B field
   LLRAUG    =     F  two centre corrections for induced B field



--------------------------------------------------------------------------------------------------------


 Static calculation
 charge density and potential will be updated during run
 spin polarized calculation
 RMM-DIIS sequential band-by-band and
  variant of blocked Davidson during initial phase
 perform sub-space diagonalisation
    before iterative eigenvector-optimisation
 modified Broyden-mixing scheme, WC =      100.0
 initial mixing is a Kerker type mixing with AMIX =  0.4000 and BMIX =      1.0000
 Hartree-type preconditioning will be used
 using additional bands           33
 real space projection scheme for non local part
 use partial core corrections
 calculate Harris-corrections to forces 
   (improved forces if not selfconsistent)
 use gradient corrections 
 use of overlap-Matrix (Vanderbilt PP)
 Fermi weights with tetrahedron method with Bloechl corrections


--------------------------------------------------------------------------------------------------------


  energy-cutoff  :      520.00
  volume of cell :      355.58
      direct lattice vectors                 reciprocal lattice vectors
     3.898486654  0.000000000 -3.898486654     0.171009359 -0.000000000 -0.085500433
     0.000000000  7.799248923  0.000000000     0.042754463  0.128217475  0.042754463
     3.898099460 -3.899624466  7.796586104     0.085508926 -0.000000000  0.085508926

  length of vectors
     5.513292698  7.799248923  9.549293443     0.191192376  0.141758982  0.120927883


 
 k-points in units of 2pi/SCALE and weight: Automatic mesh                          
   0.00000000  0.00000000  0.00000000       0.042
   0.04275234 -0.00000000 -0.02137511       0.083
   0.08550468 -0.00000000 -0.04275022       0.083
   0.01425149  0.04273916  0.01425149       0.083
   0.05700383  0.04273916 -0.00712362       0.083
   0.09975617  0.04273916 -0.02849873       0.167
  -0.02850085  0.04273916  0.03562660       0.083
   0.04275446 -0.00000000  0.04275446       0.042
   0.08550680 -0.00000000  0.02137935       0.083
   0.05700595  0.04273916  0.05700595       0.083
   0.09975829  0.04273916  0.03563084       0.083
   0.01425361  0.04273916  0.07838106       0.083
 
 k-points in reciprocal lattice and weights: Automatic mesh                          
   0.00000000  0.00000000  0.00000000       0.042
   0.25000000  0.00000000 -0.00000000       0.083
   0.50000000  0.00000000 -0.00000000       0.083
   0.00000000  0.33333333  0.00000000       0.083
   0.25000000  0.33333333 -0.00000000       0.083
   0.50000000  0.33333333  0.00000000       0.167
  -0.25000000  0.33333333  0.00000000       0.083
   0.00000000 -0.00000000  0.50000000       0.042
   0.25000000 -0.00000000  0.50000000       0.083
  -0.00000000  0.33333333  0.50000000       0.083
   0.25000000  0.33333333  0.50000000       0.083
  -0.25000000  0.33333333  0.50000000       0.083
 
 position of ions in fractional coordinates (direct lattice) 
   0.66447453  0.16699406  0.32894896
   0.33333330  0.33853377  0.66666670
   0.00219217  0.50471170  0.00438434
   0.66447453  0.66195500  0.32894896
   0.33333330  0.82813283  0.66666670
   0.00219217  0.99967264  0.00438434
   0.83333330  0.08333330  0.66666670
   0.50019689  0.25019689  0.00039379
   0.16646981  0.91646981  0.33293951
   0.83333330  0.58333330  0.66666670
   0.49976193  0.74976193  0.99952387
   0.16690477  0.41690477  0.33380943
   0.66284934  0.16828241  0.83656472
   0.00381736  0.99838429  0.49676858
   0.33088405  0.83420257  0.16840524
   0.66889394  0.66491400  0.82982790
   0.99777276  0.50175270  0.50350540
   0.33578255  0.33246403  0.16492816
   0.49985133  0.00465334  0.99970266
   0.83333330  0.83133587  0.66666670
   0.16681537  0.67161739  0.33363064
   0.49985133  0.49504931  0.99970266
   0.83333330  0.33533073  0.66666670
   0.16681537  0.16201336  0.33363064
   0.17371548  0.16828241  0.83656472
   0.49295122  0.99838429  0.49676858
   0.83752109  0.83420257  0.16840524
   0.16093406  0.66491400  0.82982790
   0.50573264  0.50175270  0.50350540
   0.82914551  0.33246403  0.16492816
 
 position of ions in cartesian coordinates  (Angst):
   3.87272084  0.01965084 -0.02576620
   3.89822852  0.04055940  3.89822891
   0.02563675  3.91927491  0.02563675
   3.87272084  3.87997440 -0.02576620
   3.89822852  3.85906427  3.89822891
   0.02563675  7.77959847  0.02563675
   5.84747185 -1.94981262  1.94898558
   1.95154593  1.94981223 -1.94694073
   1.94681166  5.84943708  1.94681127
   5.84747185  1.94981184  1.94898558
   5.84455868  1.94981223  5.84455867
   1.95189837  1.94981262  1.95189797
   5.84512181 -1.94981184  3.93823956
   1.95133524  5.84943669  3.85821708
   1.94640742  5.84943630  0.02303887
   5.84242577  1.94981262  3.86215056
   5.85251793  1.94981223  0.03581943
   1.95195017  1.94981184 -0.02316716
   5.84560413 -3.86217235  5.84560412
   5.84747185  3.88404562  1.94898558
   1.95085292  3.93707696  1.95085253
   5.84560413 -0.03745212  5.84560412
   5.84747185  0.01557806  1.94898558
   1.95085292 -0.03745173  1.95085253
   3.93823996 -1.94981184  5.84512141
   3.85821709  5.84943669  1.95133523
   3.92152514  5.84943630 -1.95207884
   3.86215096  1.94981262  5.84242537
   3.93430609  1.94981223  1.95403128
   3.87531910  1.94981184 -1.94653610
 


--------------------------------------------------------------------------------------------------------


 k-point  1 :   0.0000 0.0000 0.0000  plane waves:    9551
 k-point  2 :   0.2500 0.0000-0.0000  plane waves:    9598
 k-point  3 :   0.5000 0.0000-0.0000  plane waves:    9652
 k-point  4 :   0.0000 0.3333 0.0000  plane waves:    9579
 k-point  5 :   0.2500 0.3333-0.0000  plane waves:    9561
 k-point  6 :   0.5000 0.3333 0.0000  plane waves:    9579
 k-point  7 :  -0.2500 0.3333 0.0000  plane waves:    9572
 k-point  8 :   0.0000-0.0000 0.5000  plane waves:    9662
 k-point  9 :   0.2500-0.0000 0.5000  plane waves:    9549
 k-point 10 :  -0.0000 0.3333 0.5000  plane waves:    9577
 k-point 11 :   0.2500 0.3333 0.5000  plane waves:    9570
 k-point 12 :  -0.2500 0.3333 0.5000  plane waves:    9566

 maximum and minimum number of plane-waves per node :       990      936

 maximum number of plane-waves:      9662
 maximum index in each direction: 
   IXMAX=   10   IYMAX=   14   IZMAX=   17
   IXMIN=  -10   IYMIN=  -14   IZMIN=  -18


 real space projection operators:
  total allocation   :      22797.88 KBytes
  max/ min on nodes  :       2678.39       2162.22


 parallel 3D FFT for wavefunctions:
    minimum data exchange during FFTs selected (reduces bandwidth)
 parallel 3D FFT for charge:
    minimum data exchange during FFTs selected (reduces bandwidth)


 total amount of memory used by VASP MPI-rank0    80095. kBytes
=======================================================================

   base      :      30000. kBytes
   nonlr-proj:       8008. kBytes
   fftplans  :       3465. kBytes
   grid      :      10128. kBytes
   one-center:        294. kBytes
   wavefun   :      28200. kBytes
 
     INWAV:  cpu time    0.0000: real time    0.0002
 Broyden mixing: mesh for mixing (old mesh)
   NGX = 21   NGY = 29   NGZ = 35
  (NGX  = 84   NGY  =120   NGZ  =144)
  gives a total of  21315 points

 initial charge density was supplied:
 charge density of overlapping atoms calculated
 number of electron     222.0000000 magnetization      22.0000000
 keeping initial charge density in first step


--------------------------------------------------------------------------------------------------------


 Maximum index for non-local projection operator         1303
 Maximum index for augmentation-charges         2055 (set IRDMAX)


--------------------------------------------------------------------------------------------------------


 First call to EWALD:  gamma=   0.250
 Maximum number of real-space cells 4x 3x 2
 Maximum number of reciprocal cells 2x 3x 4

    FEWALD:  cpu time    0.0023: real time    0.0023


--------------------------------------- Iteration      1(   1)  ---------------------------------------


    POTLOK:  cpu time    0.0960: real time    0.0988
    SETDIJ:  cpu time    0.0158: real time    0.0160
atom =   1  type =  1  l = 0
 
 onsite density matrix
 
spin component  1
 
  1.0989
 
spin component  2
 
  1.0989
 
 occupancies and eigenvectors
 
  o =  1.0989  v =  1.0000  0.0000      0.0000  0.0000
  o =  1.0989  v =  0.0000  1.0000      0.0000  0.0000
atom =   2  type =  1  l = 0
 
 onsite density matrix
 
spin component  1
 
  1.0989
 
spin component  2
 
  1.0989
 
 occupancies and eigenvectors
 
  o =  1.0989  v =  1.0000  0.0000      0.0000  0.0000
  o =  1.0989  v =  0.0000  1.0000      0.0000  0.0000
atom =   3  type =  1  l = 0
 
 onsite density matrix
 
spin component  1
 
  1.0989
 
spin component  2
 
  1.0989
 
 occupancies and eigenvectors
 
  o =  1.0989  v =  1.0000  0.0000      0.0000  0.0000
  o =  1.0989  v =  0.0000  1.0000      0.0000  0.0000
atom =   4  type =  1  l = 0
 
 onsite density matrix
 
spin component  1
 
  1.0989
 
spin component  2
 
  1.0989
 
 occupancies and eigenvectors
 
  o =  1.0989  v =  1.0000  0.0000      0.0000  0.0000
  o =  1.0989  v =  0.0000  1.0000      0.0000  0.0000
atom =   5  type =  1  l = 0
 
 onsite density matrix
 
spin component  1
 
  1.0989
 
spin component  2
 
  1.0989
 
 occupancies and eigenvectors
 
  o =  1.0989  v =  1.0000  0.0000      0.0000  0.0000
  o =  1.0989  v =  0.0000  1.0000      0.0000  0.0000
atom =   6  type =  1  l = 0
 
 onsite density matrix
 
spin component  1
 
  1.0989
 
spin component  2
 
  1.0989
 
 occupancies and eigenvectors
 
  o =  1.0989  v =  1.0000  0.0000      0.0000  0.0000
  o =  1.0989  v =  0.0000  1.0000      0.0000  0.0000
atom =   7  type =  2  l = 2
 
 onsite density matrix
 
spin component  1
 
  0.8272  0.0000  0.0000  0.0000  0.0000
  0.0000  0.8272  0.0000  0.0000  0.0000
  0.0000  0.0000  0.8272  0.0000  0.0000
  0.0000  0.0000  0.0000  0.8272  0.0000
  0.0000  0.0000  0.0000  0.0000  0.8272
 
spin component  2
 
  0.2256  0.0000  0.0000  0.0000  0.0000
  0.0000  0.2256  0.0000  0.0000  0.0000
  0.0000  0.0000  0.2256  0.0000  0.0000
  0.0000  0.0000  0.0000  0.2256  0.0000
  0.0000  0.0000  0.0000  0.0000  0.2256
 
 occupancies and eigenvectors
 
  o =  0.2256  v =  0.0000  0.0000  0.0000  0.0000  0.0000  0.0000  0.0000  1.0000  0.0000  0.0000      0.0000  0.0000  0.0000  0.0000  0.0000  0.0000  0.0000  0.0000  0.0000  0.0000
  o =  0.2256  v =  0.0000  0.0000  0.0000  0.0000  0.0000  1.0000  0.0000  0.0000  0.0000  0.0000      0.0000  0.0000  0.0000  0.0000  0.0000  0.0000  0.0000  0.0000  0.0000  0.0000
  o =  0.2256  v =  0.0000  0.0000  0.0000  0.0000  0.0000  0.0000  1.0000  0.0000  0.0000  0.0000      0.0000  0.0000  0.0000  0.0000  0.0000  0.0000  0.0000  0.0000  0.0000  0.0000
  o =  0.2256  v =  0.0000  0.0000  0.0000  0.0000  0.0000  0.0000  0.0000  0.0000  1.0000  0.0000      0.0000  0.0000  0.0000  0.0000  0.0000  0.0000  0.0000  0.0000  0.0000  0.0000
  o =  0.2256  v =  0.0000  0.0000  0.0000  0.0000  0.0000  0.0000  0.0000  0.0000  0.0000  1.0000      0.0000  0.0000  0.0000  0.0000  0.0000  0.0000  0.0000  0.0000  0.0000  0.0000
  o =  0.8272  v =  0.0000  1.0000  0.0000  0.0000  0.0000  0.0000  0.0000  0.0000  0.0000  0.0000      0.0000  0.0000  0.0000  0.0000  0.0000  0.0000  0.0000  0.0000  0.0000  0.0000
  o =  0.8272  v =  0.0000  0.0000  1.0000  0.0000  0.0000  0.0000  0.0000  0.0000  0.0000  0.0000      0.0000  0.0000  0.0000  0.0000  0.0000  0.0000  0.0000  0.0000  0.0000  0.0000
  o =  0.8272  v =  1.0000  0.0000  0.0000  0.0000  0.0000  0.0000  0.0000  0.0000  0.0000  0.0000      0.0000  0.0000  0.0000  0.0000  0.0000  0.0000  0.0000  0.0000  0.0000  0.0000
  o =  0.8272  v =  0.0000  0.0000  0.0000  1.0000  0.0000  0.0000  0.0000  0.0000  0.0000  0.0000      0.0000  0.0000  0.0000  0.0000  0.0000  0.0000  0.0000  0.0000  0.0000  0.0000
  o =  0.8272  v =  0.0000  0.0000  0.0000  0.0000  1.0000  0.0000  0.0000  0.0000  0.0000  0.0000      0.0000  0.0000  0.0000  0.0000  0.0000  0.0000  0.0000  0.0000  0.0000  0.0000
atom =   8  type =  2  l = 2
 
 onsite density matrix
 
spin component  1
 
  0.8272  0.0000  0.0000  0.0000  0.0000
  0.0000  0.8272  0.0000  0.0000  0.0000
  0.0000  0.0000  0.8272  0.0000  0.0000
  0.0000  0.0000  0.0000  0.8272  0.0000
  0.0000  0.0000  0.0000  0.0000  0.8272
 
spin component  2
 
  0.2256  0.0000  0.0000  0.0000  0.0000
  0.0000  0.2256  0.0000  0.0000  0.0000
  0.0000  0.0000  0.2256  0.0000  0.0000
  0.0000  0.0000  0.0000  0.2256  0.0000
  0.0000  0.0000  0.0000  0.0000  0.2256
 
 occupancies and eigenvectors
 
  o =  0.2256  v =  0.0000  0.0000  0.0000  0.0000  0.0000  0.0000  0.0000  1.0000  0.0000  0.0000      0.0000  0.0000  0.0000  0.0000  0.0000  0.0000  0.0000  0.0000  0.0000  0.0000
  o =  0.2256  v =  0.0000  0.0000  0.0000  0.0000  0.0000  1.0000  0.0000  0.0000  0.0000  0.0000      0.0000  0.0000  0.0000  0.0000  0.0000  0.0000  0.0000  0.0000  0.0000  0.0000
  o =  0.2256  v =  0.0000  0.0000  0.0000  0.0000  0.0000  0.0000  1.0000  0.0000  0.0000  0.0000      0.0000  0.0000  0.0000  0.0000  0.0000  0.0000  0.0000  0.0000  0.0000  0.0000
  o =  0.2256  v =  0.0000  0.0000  0.0000  0.0000  0.0000  0.0000  0.0000  0.0000  1.0000  0.0000      0.0000  0.0000  0.0000  0.0000  0.0000  0.0000  0.0000  0.0000  0.0000  0.0000
  o =  0.2256  v =  0.0000  0.0000  0.0000  0.0000  0.0000  0.0000  0.0000  0.0000  0.0000  1.0000      0.0000  0.0000  0.0000  0.0000  0.0000  0.0000  0.0000  0.0000  0.0000  0.0000
  o =  0.8272  v =  0.0000  1.0000  0.0000  0.0000  0.0000  0.0000  0.0000  0.0000  0.0000  0.0000      0.0000  0.0000  0.0000  0.0000  0.0000  0.0000  0.0000  0.0000  0.0000  0.0000
  o =  0.8272  v =  0.0000  0.0000  1.0000  0.0000  0.0000  0.0000  0.0000  0.0000  0.0000  0.0000      0.0000  0.0000  0.0000  0.0000  0.0000  0.0000  0.0000  0.0000  0.0000  0.0000
  o =  0.8272  v =  1.0000  0.0000  0.0000  0.0000  0.0000  0.0000  0.0000  0.0000  0.0000  0.0000      0.0000  0.0000  0.0000  0.0000  0.0000  0.0000  0.0000  0.0000  0.0000  0.0000
  o =  0.8272  v =  0.0000  0.0000  0.0000  1.0000  0.0000  0.0000  0.0000  0.0000  0.0000  0.0000      0.0000  0.0000  0.0000  0.0000  0.0000  0.0000  0.0000  0.0000  0.0000  0.0000
  o =  0.8272  v =  0.0000  0.0000  0.0000  0.0000  1.0000  0.0000  0.0000  0.0000  0.0000  0.0000      0.0000  0.0000  0.0000  0.0000  0.0000  0.0000  0.0000  0.0000  0.0000  0.0000
atom =   9  type =  2  l = 2
 
 onsite density matrix
 
spin component  1
 
  0.8272  0.0000  0.0000  0.0000  0.0000
  0.0000  0.8272  0.0000  0.0000  0.0000
  0.0000  0.0000  0.8272  0.0000  0.0000
  0.0000  0.0000  0.0000  0.8272  0.0000
  0.0000  0.0000  0.0000  0.0000  0.8272
 
spin component  2
 
  0.2256  0.0000  0.0000  0.0000  0.0000
  0.0000  0.2256  0.0000  0.0000  0.0000
  0.0000  0.0000  0.2256  0.0000  0.0000
  0.0000  0.0000  0.0000  0.2256  0.0000
  0.0000  0.0000  0.0000  0.0000  0.2256
 
 occupancies and eigenvectors
 
  o =  0.2256  v =  0.0000  0.0000  0.0000  0.0000  0.0000  0.0000  0.0000  1.0000  0.0000  0.0000      0.0000  0.0000  0.0000  0.0000  0.0000  0.0000  0.0000  0.0000  0.0000  0.0000
  o =  0.2256  v =  0.0000  0.0000  0.0000  0.0000  0.0000  1.0000  0.0000  0.0000  0.0000  0.0000      0.0000  0.0000  0.0000  0.0000  0.0000  0.0000  0.0000  0.0000  0.0000  0.0000
  o =  0.2256  v =  0.0000  0.0000  0.0000  0.0000  0.0000  0.0000  1.0000  0.0000  0.0000  0.0000      0.0000  0.0000  0.0000  0.0000  0.0000  0.0000  0.0000  0.0000  0.0000  0.0000
  o =  0.2256  v =  0.0000  0.0000  0.0000  0.0000  0.0000  0.0000  0.0000  0.0000  1.0000  0.0000      0.0000  0.0000  0.0000  0.0000  0.0000  0.0000  0.0000  0.0000  0.0000  0.0000
  o =  0.2256  v =  0.0000  0.0000  0.0000  0.0000  0.0000  0.0000  0.0000  0.0000  0.0000  1.0000      0.0000  0.0000  0.0000  0.0000  0.0000  0.0000  0.0000  0.0000  0.0000  0.0000
  o =  0.8272  v =  0.0000  1.0000  0.0000  0.0000  0.0000  0.0000  0.0000  0.0000  0.0000  0.0000      0.0000  0.0000  0.0000  0.0000  0.0000  0.0000  0.0000  0.0000  0.0000  0.0000
  o =  0.8272  v =  0.0000  0.0000  1.0000  0.0000  0.0000  0.0000  0.0000  0.0000  0.0000  0.0000      0.0000  0.0000  0.0000  0.0000  0.0000  0.0000  0.0000  0.0000  0.0000  0.0000
  o =  0.8272  v =  1.0000  0.0000  0.0000  0.0000  0.0000  0.0000  0.0000  0.0000  0.0000  0.0000      0.0000  0.0000  0.0000  0.0000  0.0000  0.0000  0.0000  0.0000  0.0000  0.0000
  o =  0.8272  v =  0.0000  0.0000  0.0000  1.0000  0.0000  0.0000  0.0000  0.0000  0.0000  0.0000      0.0000  0.0000  0.0000  0.0000  0.0000  0.0000  0.0000  0.0000  0.0000  0.0000
  o =  0.8272  v =  0.0000  0.0000  0.0000  0.0000  1.0000  0.0000  0.0000  0.0000  0.0000  0.0000      0.0000  0.0000  0.0000  0.0000  0.0000  0.0000  0.0000  0.0000  0.0000  0.0000
atom =  10  type =  2  l = 2
 
 onsite density matrix
 
spin component  1
 
  0.8272  0.0000  0.0000  0.0000  0.0000
  0.0000  0.8272  0.0000  0.0000  0.0000
  0.0000  0.0000  0.8272  0.0000  0.0000
  0.0000  0.0000  0.0000  0.8272  0.0000
  0.0000  0.0000  0.0000  0.0000  0.8272
 
spin component  2
 
  0.2256  0.0000  0.0000  0.0000  0.0000
  0.0000  0.2256  0.0000  0.0000  0.0000
  0.0000  0.0000  0.2256  0.0000  0.0000
  0.0000  0.0000  0.0000  0.2256  0.0000
  0.0000  0.0000  0.0000  0.0000  0.2256
 
 occupancies and eigenvectors
 
  o =  0.2256  v =  0.0000  0.0000  0.0000  0.0000  0.0000  0.0000  0.0000  1.0000  0.0000  0.0000      0.0000  0.0000  0.0000  0.0000  0.0000  0.0000  0.0000  0.0000  0.0000  0.0000
  o =  0.2256  v =  0.0000  0.0000  0.0000  0.0000  0.0000  1.0000  0.0000  0.0000  0.0000  0.0000      0.0000  0.0000  0.0000  0.0000  0.0000  0.0000  0.0000  0.0000  0.0000  0.0000
  o =  0.2256  v =  0.0000  0.0000  0.0000  0.0000  0.0000  0.0000  1.0000  0.0000  0.0000  0.0000      0.0000  0.0000  0.0000  0.0000  0.0000  0.0000  0.0000  0.0000  0.0000  0.0000
  o =  0.2256  v =  0.0000  0.0000  0.0000  0.0000  0.0000  0.0000  0.0000  0.0000  1.0000  0.0000      0.0000  0.0000  0.0000  0.0000  0.0000  0.0000  0.0000  0.0000  0.0000  0.0000
  o =  0.2256  v =  0.0000  0.0000  0.0000  0.0000  0.0000  0.0000  0.0000  0.0000  0.0000  1.0000      0.0000  0.0000  0.0000  0.0000  0.0000  0.0000  0.0000  0.0000  0.0000  0.0000
  o =  0.8272  v =  0.0000  1.0000  0.0000  0.0000  0.0000  0.0000  0.0000  0.0000  0.0000  0.0000      0.0000  0.0000  0.0000  0.0000  0.0000  0.0000  0.0000  0.0000  0.0000  0.0000
  o =  0.8272  v =  0.0000  0.0000  1.0000  0.0000  0.0000  0.0000  0.0000  0.0000  0.0000  0.0000      0.0000  0.0000  0.0000  0.0000  0.0000  0.0000  0.0000  0.0000  0.0000  0.0000
  o =  0.8272  v =  1.0000  0.0000  0.0000  0.0000  0.0000  0.0000  0.0000  0.0000  0.0000  0.0000      0.0000  0.0000  0.0000  0.0000  0.0000  0.0000  0.0000  0.0000  0.0000  0.0000
  o =  0.8272  v =  0.0000  0.0000  0.0000  1.0000  0.0000  0.0000  0.0000  0.0000  0.0000  0.0000      0.0000  0.0000  0.0000  0.0000  0.0000  0.0000  0.0000  0.0000  0.0000  0.0000
  o =  0.8272  v =  0.0000  0.0000  0.0000  0.0000  1.0000  0.0000  0.0000  0.0000  0.0000  0.0000      0.0000  0.0000  0.0000  0.0000  0.0000  0.0000  0.0000  0.0000  0.0000  0.0000
atom =  11  type =  3  l = 2
 
 onsite density matrix
 
spin component  1
 
  1.1008  0.0000  0.0000  0.0000  0.0000
  0.0000  1.1008  0.0000  0.0000  0.0000
  0.0000  0.0000  1.1008  0.0000  0.0000
  0.0000  0.0000  0.0000  1.1008  0.0000
  0.0000  0.0000  0.0000  0.0000  1.1008
 
spin component  2
 
  0.5927  0.0000  0.0000  0.0000  0.0000
  0.0000  0.5927  0.0000  0.0000  0.0000
  0.0000  0.0000  0.5927  0.0000  0.0000
  0.0000  0.0000  0.0000  0.5927  0.0000
  0.0000  0.0000  0.0000  0.0000  0.5927
 
 occupancies and eigenvectors
 
  o =  0.5927  v =  0.0000  0.0000  0.0000  0.0000  0.0000  1.0000  0.0000  0.0000  0.0000  0.0000      0.0000  0.0000  0.0000  0.0000  0.0000  0.0000  0.0000  0.0000  0.0000  0.0000
  o =  0.5927  v =  0.0000  0.0000  0.0000  0.0000  0.0000  0.0000  1.0000  0.0000  0.0000  0.0000      0.0000  0.0000  0.0000  0.0000  0.0000  0.0000  0.0000  0.0000  0.0000  0.0000
  o =  0.5927  v =  0.0000  0.0000  0.0000  0.0000  0.0000  0.0000  0.0000  1.0000  0.0000  0.0000      0.0000  0.0000  0.0000  0.0000  0.0000  0.0000  0.0000  0.0000  0.0000  0.0000
  o =  0.5927  v =  0.0000  0.0000  0.0000  0.0000  0.0000  0.0000  0.0000  0.0000  1.0000  0.0000      0.0000  0.0000  0.0000  0.0000  0.0000  0.0000  0.0000  0.0000  0.0000  0.0000
  o =  0.5927  v =  0.0000  0.0000  0.0000  0.0000  0.0000  0.0000  0.0000  0.0000  0.0000  1.0000      0.0000  0.0000  0.0000  0.0000  0.0000  0.0000  0.0000  0.0000  0.0000  0.0000
  o =  1.1008  v =  1.0000  0.0000  0.0000  0.0000  0.0000  0.0000  0.0000  0.0000  0.0000  0.0000      0.0000  0.0000  0.0000  0.0000  0.0000  0.0000  0.0000  0.0000  0.0000  0.0000
  o =  1.1008  v =  0.0000  1.0000  0.0000  0.0000  0.0000  0.0000  0.0000  0.0000  0.0000  0.0000      0.0000  0.0000  0.0000  0.0000  0.0000  0.0000  0.0000  0.0000  0.0000  0.0000
  o =  1.1008  v =  0.0000  0.0000  1.0000  0.0000  0.0000  0.0000  0.0000  0.0000  0.0000  0.0000      0.0000  0.0000  0.0000  0.0000  0.0000  0.0000  0.0000  0.0000  0.0000  0.0000
  o =  1.1008  v =  0.0000  0.0000  0.0000  1.0000  0.0000  0.0000  0.0000  0.0000  0.0000  0.0000      0.0000  0.0000  0.0000  0.0000  0.0000  0.0000  0.0000  0.0000  0.0000  0.0000
  o =  1.1008  v =  0.0000  0.0000  0.0000  0.0000  1.0000  0.0000  0.0000  0.0000  0.0000  0.0000      0.0000  0.0000  0.0000  0.0000  0.0000  0.0000  0.0000  0.0000  0.0000  0.0000
atom =  12  type =  3  l = 2
 
 onsite density matrix
 
spin component  1
 
  1.1008  0.0000  0.0000  0.0000  0.0000
  0.0000  1.1008  0.0000  0.0000  0.0000
  0.0000  0.0000  1.1008  0.0000  0.0000
  0.0000  0.0000  0.0000  1.1008  0.0000
  0.0000  0.0000  0.0000  0.0000  1.1008
 
spin component  2
 
  0.5927  0.0000  0.0000  0.0000  0.0000
  0.0000  0.5927  0.0000  0.0000  0.0000
  0.0000  0.0000  0.5927  0.0000  0.0000
  0.0000  0.0000  0.0000  0.5927  0.0000
  0.0000  0.0000  0.0000  0.0000  0.5927
 
 occupancies and eigenvectors
 
  o =  0.5927  v =  0.0000  0.0000  0.0000  0.0000  0.0000  1.0000  0.0000  0.0000  0.0000  0.0000      0.0000  0.0000  0.0000  0.0000  0.0000  0.0000  0.0000  0.0000  0.0000  0.0000
  o =  0.5927  v =  0.0000  0.0000  0.0000  0.0000  0.0000  0.0000  1.0000  0.0000  0.0000  0.0000      0.0000  0.0000  0.0000  0.0000  0.0000  0.0000  0.0000  0.0000  0.0000  0.0000
  o =  0.5927  v =  0.0000  0.0000  0.0000  0.0000  0.0000  0.0000  0.0000  1.0000  0.0000  0.0000      0.0000  0.0000  0.0000  0.0000  0.0000  0.0000  0.0000  0.0000  0.0000  0.0000
  o =  0.5927  v =  0.0000  0.0000  0.0000  0.0000  0.0000  0.0000  0.0000  0.0000  1.0000  0.0000      0.0000  0.0000  0.0000  0.0000  0.0000  0.0000  0.0000  0.0000  0.0000  0.0000
  o =  0.5927  v =  0.0000  0.0000  0.0000  0.0000  0.0000  0.0000  0.0000  0.0000  0.0000  1.0000      0.0000  0.0000  0.0000  0.0000  0.0000  0.0000  0.0000  0.0000  0.0000  0.0000
  o =  1.1008  v =  1.0000  0.0000  0.0000  0.0000  0.0000  0.0000  0.0000  0.0000  0.0000  0.0000      0.0000  0.0000  0.0000  0.0000  0.0000  0.0000  0.0000  0.0000  0.0000  0.0000
  o =  1.1008  v =  0.0000  1.0000  0.0000  0.0000  0.0000  0.0000  0.0000  0.0000  0.0000  0.0000      0.0000  0.0000  0.0000  0.0000  0.0000  0.0000  0.0000  0.0000  0.0000  0.0000
  o =  1.1008  v =  0.0000  0.0000  1.0000  0.0000  0.0000  0.0000  0.0000  0.0000  0.0000  0.0000      0.0000  0.0000  0.0000  0.0000  0.0000  0.0000  0.0000  0.0000  0.0000  0.0000
  o =  1.1008  v =  0.0000  0.0000  0.0000  1.0000  0.0000  0.0000  0.0000  0.0000  0.0000  0.0000      0.0000  0.0000  0.0000  0.0000  0.0000  0.0000  0.0000  0.0000  0.0000  0.0000
  o =  1.1008  v =  0.0000  0.0000  0.0000  0.0000  1.0000  0.0000  0.0000  0.0000  0.0000  0.0000      0.0000  0.0000  0.0000  0.0000  0.0000  0.0000  0.0000  0.0000  0.0000  0.0000
atom =  13  type =  4  l = 0
 
 onsite density matrix
 
spin component  1
 
  0.8190
 
spin component  2
 
  0.8190
 
 occupancies and eigenvectors
 
  o =  0.8190  v =  1.0000  0.0000      0.0000  0.0000
  o =  0.8190  v =  0.0000  1.0000      0.0000  0.0000
atom =  14  type =  4  l = 0
 
 onsite density matrix
 
spin component  1
 
  0.8190
 
spin component  2
 
  0.8190
 
 occupancies and eigenvectors
 
  o =  0.8190  v =  1.0000  0.0000      0.0000  0.0000
  o =  0.8190  v =  0.0000  1.0000      0.0000  0.0000
atom =  15  type =  4  l = 0
 
 onsite density matrix
 
spin component  1
 
  0.8190
 
spin component  2
 
  0.8190
 
 occupancies and eigenvectors
 
  o =  0.8190  v =  1.0000  0.0000      0.0000  0.0000
  o =  0.8190  v =  0.0000  1.0000      0.0000  0.0000
atom =  16  type =  4  l = 0
 
 onsite density matrix
 
spin component  1
 
  0.8190
 
spin component  2
 
  0.8190
 
 occupancies and eigenvectors
 
  o =  0.8190  v =  1.0000  0.0000      0.0000  0.0000
  o =  0.8190  v =  0.0000  1.0000      0.0000  0.0000
atom =  17  type =  4  l = 0
 
 onsite density matrix
 
spin component  1
 
  0.8190
 
spin component  2
 
  0.8190
 
 occupancies and eigenvectors
 
  o =  0.8190  v =  1.0000  0.0000      0.0000  0.0000
  o =  0.8190  v =  0.0000  1.0000      0.0000  0.0000
atom =  18  type =  4  l = 0
 
 onsite density matrix
 
spin component  1
 
  0.8190
 
spin component  2
 
  0.8190
 
 occupancies and eigenvectors
 
  o =  0.8190  v =  1.0000  0.0000      0.0000  0.0000
  o =  0.8190  v =  0.0000  1.0000      0.0000  0.0000
atom =  19  type =  4  l = 0
 
 onsite density matrix
 
spin component  1
 
  0.8190
 
spin component  2
 
  0.8190
 
 occupancies and eigenvectors
 
  o =  0.8190  v =  1.0000  0.0000      0.0000  0.0000
  o =  0.8190  v =  0.0000  1.0000      0.0000  0.0000
atom =  20  type =  4  l = 0
 
 onsite density matrix
 
spin component  1
 
  0.8190
 
spin component  2
 
  0.8190
 
 occupancies and eigenvectors
 
  o =  0.8190  v =  1.0000  0.0000      0.0000  0.0000
  o =  0.8190  v =  0.0000  1.0000      0.0000  0.0000
atom =  21  type =  4  l = 0
 
 onsite density matrix
 
spin component  1
 
  0.8190
 
spin component  2
 
  0.8190
 
 occupancies and eigenvectors
 
  o =  0.8190  v =  1.0000  0.0000      0.0000  0.0000
  o =  0.8190  v =  0.0000  1.0000      0.0000  0.0000
atom =  22  type =  4  l = 0
 
 onsite density matrix
 
spin component  1
 
  0.8190
 
spin component  2
 
  0.8190
 
 occupancies and eigenvectors
 
  o =  0.8190  v =  1.0000  0.0000      0.0000  0.0000
  o =  0.8190  v =  0.0000  1.0000      0.0000  0.0000
atom =  23  type =  4  l = 0
 
 onsite density matrix
 
spin component  1
 
  0.8190
 
spin component  2
 
  0.8190
 
 occupancies and eigenvectors
 
  o =  0.8190  v =  1.0000  0.0000      0.0000  0.0000
  o =  0.8190  v =  0.0000  1.0000      0.0000  0.0000
atom =  24  type =  4  l = 0
 
 onsite density matrix
 
spin component  1
 
  0.8190
 
spin component  2
 
  0.8190
 
 occupancies and eigenvectors
 
  o =  0.8190  v =  1.0000  0.0000      0.0000  0.0000
  o =  0.8190  v =  0.0000  1.0000      0.0000  0.0000
atom =  25  type =  4  l = 0
 
 onsite density matrix
 
spin component  1
 
  0.8190
 
spin component  2
 
  0.8190
 
 occupancies and eigenvectors
 
  o =  0.8190  v =  1.0000  0.0000      0.0000  0.0000
  o =  0.8190  v =  0.0000  1.0000      0.0000  0.0000
atom =  26  type =  4  l = 0
 
 onsite density matrix
 
spin component  1
 
  0.8190
 
spin component  2
 
  0.8190
 
 occupancies and eigenvectors
 
  o =  0.8190  v =  1.0000  0.0000      0.0000  0.0000
  o =  0.8190  v =  0.0000  1.0000      0.0000  0.0000
atom =  27  type =  4  l = 0
 
 onsite density matrix
 
spin component  1
 
  0.8190
 
spin component  2
 
  0.8190
 
 occupancies and eigenvectors
 
  o =  0.8190  v =  1.0000  0.0000      0.0000  0.0000
  o =  0.8190  v =  0.0000  1.0000      0.0000  0.0000
atom =  28  type =  4  l = 0
 
 onsite density matrix
 
spin component  1
 
  0.8190
 
spin component  2
 
  0.8190
 
 occupancies and eigenvectors
 
  o =  0.8190  v =  1.0000  0.0000      0.0000  0.0000
  o =  0.8190  v =  0.0000  1.0000      0.0000  0.0000
atom =  29  type =  4  l = 0
 
 onsite density matrix
 
spin component  1
 
  0.8190
 
spin component  2
 
  0.8190
 
 occupancies and eigenvectors
 
  o =  0.8190  v =  1.0000  0.0000      0.0000  0.0000
  o =  0.8190  v =  0.0000  1.0000      0.0000  0.0000
atom =  30  type =  4  l = 0
 
 onsite density matrix
 
spin component  1
 
  0.8190
 
spin component  2
 
  0.8190
 
 occupancies and eigenvectors
 
  o =  0.8190  v =  1.0000  0.0000      0.0000  0.0000
  o =  0.8190  v =  0.0000  1.0000      0.0000  0.0000
     EDDAV:  cpu time    4.7644: real time    4.7872
 BZINTS: Fermi energy: 31.625911;222.000000 electrons
         Band energy:3325.671193;  BLOECHL correction: -0.222295
       DOS:  cpu time    0.0312: real time    0.0316
    --------------------------------------------
      LOOP:  cpu time    4.9075: real time    4.9337

 eigenvalue-minimisations  :  7384
 total energy-change (2. order) : 0.3571628E+04  (-0.7743195E+04)
 number of electron     222.0000000 magnetization      22.0000000
 augmentation part      222.0000000 magnetization      22.0000000

 Free energy of the ion-electron system (eV)
  ---------------------------------------------------
  alpha Z        PSCENC =       975.62687269
  Ewald energy   TEWEN  =    -15065.62977885
  -Hartree energ DENC   =     -3149.92324116
  -exchange      EXHF   =         0.00000000
  -V(xc)+E(xc)   XCENC  =       710.61064696
  PAW double counting   =     13644.53670636   -13669.90867429
  entropy T*S    EENTRO =         0.00000000
  eigenvalues    EBANDS =      3325.67119275
  atomic energy  EATOM  =     16800.64461370
  Solvation  Ediel_sol  =         0.00000000
  ---------------------------------------------------
  free energy    TOTEN  =      3571.62833815 eV

  energy without entropy =     3571.62833815  energy(sigma->0) =     3571.62833815


--------------------------------------------------------------------------------------------------------




--------------------------------------- Iteration      1(   2)  ---------------------------------------


     EDDAV:  cpu time    4.9136: real time    4.9410
 BZINTS: Fermi energy: 16.471061;222.000000 electrons
         Band energy:1000.581095;  BLOECHL correction: -0.036575
       DOS:  cpu time    0.0319: real time    0.0321
    --------------------------------------------
      LOOP:  cpu time    4.9455: real time    4.9730

 eigenvalue-minimisations  :  7728
 total energy-change (2. order) :-0.2325090E+04  (-0.2097479E+04)
 number of electron     222.0000000 magnetization      22.0000000
 augmentation part      222.0000000 magnetization      22.0000000

 Free energy of the ion-electron system (eV)
  ---------------------------------------------------
  alpha Z        PSCENC =       975.62687269
  Ewald energy   TEWEN  =    -15065.62977885
  -Hartree energ DENC   =     -3149.92324116
  -exchange      EXHF   =         0.00000000
  -V(xc)+E(xc)   XCENC  =       710.61064696
  PAW double counting   =     13644.53670636   -13669.90867429
  entropy T*S    EENTRO =         0.00000000
  eigenvalues    EBANDS =      1000.58109458
  atomic energy  EATOM  =     16800.64461370
  Solvation  Ediel_sol  =         0.00000000
  ---------------------------------------------------
  free energy    TOTEN  =      1246.53823998 eV

  energy without entropy =     1246.53823998  energy(sigma->0) =     1246.53823998


--------------------------------------------------------------------------------------------------------




--------------------------------------- Iteration      1(   3)  ---------------------------------------


     EDDAV:  cpu time    5.0455: real time    5.0627
 BZINTS: Fermi energy: 12.109763;222.000000 electrons
         Band energy:  25.473364;  BLOECHL correction: -0.029609
       DOS:  cpu time    0.0319: real time    0.0320
    --------------------------------------------
      LOOP:  cpu time    5.0773: real time    5.0946

 eigenvalue-minimisations  :  8024
 total energy-change (2. order) :-0.9751077E+03  (-0.8790302E+03)
 number of electron     222.0000000 magnetization      22.0000000
 augmentation part      222.0000000 magnetization      22.0000000

 Free energy of the ion-electron system (eV)
  ---------------------------------------------------
  alpha Z        PSCENC =       975.62687269
  Ewald energy   TEWEN  =    -15065.62977885
  -Hartree energ DENC   =     -3149.92324116
  -exchange      EXHF   =         0.00000000
  -V(xc)+E(xc)   XCENC  =       710.61064696
  PAW double counting   =     13644.53670636   -13669.90867429
  entropy T*S    EENTRO =         0.00000000
  eigenvalues    EBANDS =        25.47336435
  atomic energy  EATOM  =     16800.64461370
  Solvation  Ediel_sol  =         0.00000000
  ---------------------------------------------------
  free energy    TOTEN  =       271.43050975 eV

  energy without entropy =      271.43050975  energy(sigma->0) =      271.43050975


--------------------------------------------------------------------------------------------------------




--------------------------------------- Iteration      1(   4)  ---------------------------------------


     EDDAV:  cpu time    6.6333: real time    6.6566
 BZINTS: Fermi energy: 11.367103;222.000000 electrons
         Band energy:-408.781894;  BLOECHL correction: -0.006378
       DOS:  cpu time    0.0329: real time    0.0330
    --------------------------------------------
      LOOP:  cpu time    6.6663: real time    6.6896

 eigenvalue-minimisations  : 11152
 total energy-change (2. order) :-0.4342553E+03  (-0.4090956E+03)
 number of electron     222.0000000 magnetization      22.0000000
 augmentation part      222.0000000 magnetization      22.0000000

 Free energy of the ion-electron system (eV)
  ---------------------------------------------------
  alpha Z        PSCENC =       975.62687269
  Ewald energy   TEWEN  =    -15065.62977885
  -Hartree energ DENC   =     -3149.92324116
  -exchange      EXHF   =         0.00000000
  -V(xc)+E(xc)   XCENC  =       710.61064696
  PAW double counting   =     13644.53670636   -13669.90867429
  entropy T*S    EENTRO =         0.00000000
  eigenvalues    EBANDS =      -408.78189370
  atomic energy  EATOM  =     16800.64461370
  Solvation  Ediel_sol  =         0.00000000
  ---------------------------------------------------
  free energy    TOTEN  =      -162.82474829 eV

  energy without entropy =     -162.82474829  energy(sigma->0) =     -162.82474829


--------------------------------------------------------------------------------------------------------




--------------------------------------- Iteration      1(   5)  ---------------------------------------


     EDDAV:  cpu time    7.3461: real time    7.3685
 BZINTS: Fermi energy: 10.991541;222.000000 electrons
         Band energy:-501.449098;  BLOECHL correction: -0.042273
       DOS:  cpu time    0.0300: real time    0.0300
    CHARGE:  cpu time    0.2174: real time    0.2181
    MIXING:  cpu time    0.0039: real time    0.0040
    --------------------------------------------
      LOOP:  cpu time    7.5974: real time    7.6206

 eigenvalue-minimisations  : 12552
 total energy-change (2. order) :-0.9266720E+02  (-0.8932637E+02)
 number of electron     222.0000006 magnetization      19.2186815
 augmentation part       26.0280523 magnetization      13.4439366

 Broyden mixing:
  rms(total) = 0.70941E+01    rms(broyden)= 0.70934E+01
  rms(prec ) = 0.87320E+01
  weight for this iteration     100.00

 Free energy of the ion-electron system (eV)
  ---------------------------------------------------
  alpha Z        PSCENC =       975.62687269
  Ewald energy   TEWEN  =    -15065.62977885
  -Hartree energ DENC   =     -3149.92324116
  -exchange      EXHF   =         0.00000000
  -V(xc)+E(xc)   XCENC  =       710.61064696
  PAW double counting   =     13644.53670636   -13669.90867429
  entropy T*S    EENTRO =         0.00000000
  eigenvalues    EBANDS =      -501.44909783
  atomic energy  EATOM  =     16800.64461370
  Solvation  Ediel_sol  =         0.00000000
  ---------------------------------------------------
  free energy    TOTEN  =      -255.49195242 eV

  energy without entropy =     -255.49195242  energy(sigma->0) =     -255.49195242


--------------------------------------------------------------------------------------------------------




--------------------------------------- Iteration      1(   6)  ---------------------------------------


    POTLOK:  cpu time    0.0932: real time    0.0948
    SETDIJ:  cpu time    0.0145: real time    0.0146
atom =   1  type =  1  l = 0
 
 onsite density matrix
 
spin component  1
 
  1.0564
 
spin component  2
 
  1.0564
 
 occupancies and eigenvectors
 
  o =  1.0564  v =  1.0000  0.0000      0.0000  0.0000
  o =  1.0564  v =  0.0000  1.0000      0.0000  0.0000
atom =   2  type =  1  l = 0
 
 onsite density matrix
 
spin component  1
 
  1.0559
 
spin component  2
 
  1.0561
 
 occupancies and eigenvectors
 
  o =  1.0559  v =  1.0000  0.0000      0.0000  0.0000
  o =  1.0561  v =  0.0000  1.0000      0.0000  0.0000
atom =   3  type =  1  l = 0
 
 onsite density matrix
 
spin component  1
 
  1.0564
 
spin component  2
 
  1.0564
 
 occupancies and eigenvectors
 
  o =  1.0564  v =  1.0000  0.0000      0.0000  0.0000
  o =  1.0564  v =  0.0000  1.0000      0.0000  0.0000
atom =   4  type =  1  l = 0
 
 onsite density matrix
 
spin component  1
 
  1.0564
 
spin component  2
 
  1.0564
 
 occupancies and eigenvectors
 
  o =  1.0564  v =  1.0000  0.0000      0.0000  0.0000
  o =  1.0564  v =  0.0000  1.0000      0.0000  0.0000
atom =   5  type =  1  l = 0
 
 onsite density matrix
 
spin component  1
 
  1.0559
 
spin component  2
 
  1.0561
 
 occupancies and eigenvectors
 
  o =  1.0559  v =  1.0000  0.0000      0.0000  0.0000
  o =  1.0561  v =  0.0000  1.0000      0.0000  0.0000
atom =   6  type =  1  l = 0
 
 onsite density matrix
 
spin component  1
 
  1.0564
 
spin component  2
 
  1.0564
 
 occupancies and eigenvectors
 
  o =  1.0564  v =  1.0000  0.0000      0.0000  0.0000
  o =  1.0564  v =  0.0000  1.0000      0.0000  0.0000
atom =   7  type =  2  l = 2
 
 onsite density matrix
 
spin component  1
 
  0.9446  0.0007  0.0000 -0.0000  0.0000
  0.0007  0.9446  0.0000 -0.0000  0.0000
  0.0000  0.0000  0.4649 -0.0027 -0.0067
 -0.0000 -0.0000 -0.0027  0.9464 -0.0048
  0.0000  0.0000 -0.0067 -0.0048  0.4572
 
spin component  2
 
  0.0321 -0.0003 -0.0000  0.0000 -0.0000
 -0.0003  0.0321 -0.0000  0.0000 -0.0000
 -0.0000 -0.0000  0.3635  0.0017  0.0058
  0.0000  0.0000  0.0017  0.0287  0.0029
 -0.0000 -0.0000  0.0058  0.0029  0.3702
 
 occupancies and eigenvectors
 
  o =  0.0286  v =  0.0000  0.0000  0.0000  0.0000  0.0000  0.0000  0.0000  0.0049 -1.0000  0.0085      0.0000  0.0000  0.0000  0.0000  0.0000  0.0000  0.0000  0.0000  0.0000  0.0000
  o =  0.0318  v =  0.0000  0.0000  0.0000  0.0000  0.0000  0.7071  0.7071 -0.0000  0.0000 -0.0000      0.0000  0.0000  0.0000  0.0000  0.0000  0.0000  0.0000  0.0000  0.0000  0.0000
  o =  0.0324  v =  0.0000  0.0000  0.0000  0.0000  0.0000  0.7071 -0.7071  0.0000 -0.0000 -0.0000      0.0000  0.0000  0.0000  0.0000  0.0000  0.0000  0.0000  0.0000  0.0000  0.0000
  o =  0.3602  v =  0.0000  0.0000  0.0000  0.0000  0.0000 -0.0000  0.0000  0.8660  0.0000 -0.5000      0.0000  0.0000  0.0000  0.0000  0.0000  0.0000  0.0000  0.0000  0.0000  0.0000
  o =  0.3735  v =  0.0000  0.0000  0.0000  0.0000  0.0000  0.0000  0.0000 -0.5000 -0.0099 -0.8660      0.0000  0.0000  0.0000  0.0000  0.0000  0.0000  0.0000  0.0000  0.0000  0.0000
  o =  0.4533  v =  0.0000  0.0000 -0.5000 -0.0111 -0.8660  0.0000  0.0000  0.0000  0.0000  0.0000      0.0000  0.0000  0.0000  0.0000  0.0000  0.0000  0.0000  0.0000  0.0000  0.0000
  o =  0.4688  v =  0.0000 -0.0000 -0.8660 -0.0000  0.5000  0.0000  0.0000  0.0000  0.0000  0.0000      0.0000  0.0000  0.0000  0.0000  0.0000  0.0000  0.0000  0.0000  0.0000  0.0000
  o =  0.9440  v = -0.7071  0.7071 -0.0000  0.0000  0.0000  0.0000  0.0000  0.0000  0.0000  0.0000      0.0000  0.0000  0.0000  0.0000  0.0000  0.0000  0.0000  0.0000  0.0000  0.0000
  o =  0.9453  v = -0.7071 -0.7071  0.0000 -0.0000  0.0000  0.0000  0.0000  0.0000  0.0000  0.0000      0.0000  0.0000  0.0000  0.0000  0.0000  0.0000  0.0000  0.0000  0.0000  0.0000
  o =  0.9465  v = -0.0000 -0.0000 -0.0056  0.9999 -0.0096  0.0000  0.0000  0.0000  0.0000  0.0000      0.0000  0.0000  0.0000  0.0000  0.0000  0.0000  0.0000  0.0000  0.0000  0.0000
atom =   8  type =  2  l = 2
 
 onsite density matrix
 
spin component  1
 
  0.9495 -0.0043  0.0000 -0.0000  0.0000
 -0.0043  0.9495  0.0000 -0.0000  0.0000
  0.0000  0.0000  0.3758  0.0030 -0.0126
 -0.0000 -0.0000  0.0030  0.9458  0.0052
  0.0000  0.0000 -0.0126  0.0052  0.3612
 
spin component  2
 
  0.0391  0.0031 -0.0000  0.0000 -0.0000
  0.0031  0.0391 -0.0000  0.0000 -0.0000
[...]
 -0.000  -0.000   0.000  -0.000  -0.000   0.000  -0.001  -0.000  -0.001   0.000  -0.000  -0.000  -0.000   0.000  -0.000   0.000
  0.000   0.000  -0.000  -0.000   0.000  -0.000   0.000   0.000  -0.001   0.000  -0.001  -0.000  -0.000   0.000  -0.000   0.000
  0.000   0.000  -0.000  -0.000  -0.000  -0.000  -0.000  -0.000  -0.000  -0.000   0.000  -0.000  -0.001   0.000   0.000  -0.000
  0.000  -0.000   0.000  -0.000  -0.000   0.000  -0.000  -0.001   0.000  -0.000  -0.000  -0.000  -0.000   0.000   0.000   0.000
  0.000   0.000   0.000   0.000  -0.000  -0.001   0.000   0.000   0.000  -0.001   0.001  -0.000  -0.001  -0.000   0.000  -0.000
  0.000  -0.011  -0.000  -0.000  -0.000  -0.000   0.000   0.000  -0.001  -0.001   0.000   0.001   0.000   0.000   0.000  -0.000
  0.000   0.000   0.000  -0.000   0.000  -0.001   0.000   0.000  -0.001   0.000  -0.001  -0.000   0.000   0.000  -0.000   0.000
  0.000   0.001  -0.000  -0.000   0.000  -0.000   0.001   0.000   0.000  -0.001   0.001   0.001   0.000  -0.000   0.000  -0.000
 -0.000  -0.000   0.000   0.000   0.000   0.000  -0.000  -0.001   0.001  -0.000   0.001   0.000   0.000  -0.000   0.000  -0.000
 -0.000  -0.000   0.000   0.000   0.000   0.000   0.000   0.000   0.000   0.001  -0.000   0.001   0.002  -0.000  -0.000   0.000
 -0.000   0.000   0.000   0.000  -0.000  -0.000   0.000   0.001  -0.000   0.000   0.001   0.001   0.001   0.000  -0.000  -0.000


------------------------ aborting loop because EDIFF is reached ----------------------------------------


 


 total charge     
 
# of ion       s       p       d       f       tot
--------------------------------------------------
    1        1.998   5.697   0.482   0.187   8.364
    2        1.999   5.697   0.483   0.188   8.367
    3        1.998   5.697   0.482   0.187   8.364
    4        1.998   5.697   0.482   0.187   8.364
    5        1.999   5.697   0.483   0.188   8.366
    6        1.999   5.697   0.482   0.187   8.364
    7        0.290   0.426   4.947   0.000   5.663
    8        0.350   0.559   4.859   0.000   5.768
    9        0.350   0.559   4.859   0.000   5.768
   10        0.347   0.551   4.862   0.000   5.760
   11        0.381   0.545   8.318   0.000   9.243
   12        0.381   0.545   8.318   0.000   9.243
   13        1.564   3.457   0.000   0.000   5.021
   14        1.564   3.457   0.000   0.000   5.021
   15        1.560   3.458   0.000   0.000   5.018
   16        1.560   3.457   0.000   0.000   5.017
   17        1.560   3.457   0.000   0.000   5.017
   18        1.560   3.458   0.000   0.000   5.018
   19        1.560   3.456   0.000   0.000   5.016
   20        1.564   3.461   0.000   0.000   5.026
   21        1.560   3.456   0.000   0.000   5.016
   22        1.560   3.456   0.000   0.000   5.016
   23        1.564   3.461   0.000   0.000   5.026
   24        1.560   3.456   0.000   0.000   5.016
   25        1.564   3.460   0.000   0.000   5.024
   26        1.564   3.460   0.000   0.000   5.024
   27        1.560   3.460   0.000   0.000   5.019
   28        1.560   3.459   0.000   0.000   5.019
   29        1.560   3.459   0.000   0.000   5.019
   30        1.560   3.460   0.000   0.000   5.019
--------------------------------------------------
tot         42.194  99.616  39.054   1.123 181.987

 


 magnetization (x)
 
# of ion       s       p       d       f       tot
--------------------------------------------------
    1        0.001   0.001   0.009   0.004   0.014
    2        0.001   0.001   0.010   0.005   0.017
    3        0.001   0.001   0.009   0.004   0.014
    4        0.001   0.001   0.009   0.004   0.014
    5        0.001   0.001   0.010   0.005   0.017
    6        0.001   0.001   0.009   0.004   0.014
    7        0.020   0.021   4.029   0.000   4.070
    8        0.025   0.037   3.339   0.000   3.402
    9        0.025   0.037   3.339   0.000   3.402
   10        0.026   0.037   3.384   0.000   3.446
   11        0.004  -0.005   1.702   0.000   1.702
   12        0.004  -0.005   1.702   0.000   1.702
   13        0.005  -0.036   0.000   0.000  -0.030
   14        0.005  -0.036   0.000   0.000  -0.030
   15        0.005  -0.001   0.000   0.000   0.004
   16        0.004  -0.007   0.000   0.000  -0.003
   17        0.004  -0.007   0.000   0.000  -0.003
   18        0.005  -0.001   0.000   0.000   0.004
   19        0.004  -0.007   0.000   0.000  -0.002
   20        0.006  -0.031   0.000   0.000  -0.025
   21        0.004  -0.007   0.000   0.000  -0.003
   22        0.004  -0.007   0.000   0.000  -0.003
   23        0.006  -0.031   0.000   0.000  -0.025
   24        0.004  -0.007   0.000   0.000  -0.002
   25        0.005  -0.033   0.000   0.000  -0.028
   26        0.005  -0.033   0.000   0.000  -0.028
   27        0.005  -0.000   0.000   0.000   0.004
   28        0.004  -0.006   0.000   0.000  -0.002
   29        0.004  -0.006   0.000   0.000  -0.002
   30        0.005  -0.000   0.000   0.000   0.005
--------------------------------------------------
tot          0.197  -0.130  17.551   0.026  17.644

 
    CHARGE:  cpu time    0.2145: real time    0.2154
    FORLOC:  cpu time    0.0125: real time    0.0125
    FORNL :  cpu time    1.4011: real time    1.4052
    STRESS:  cpu time    4.2205: real time    4.2348
    FORCOR:  cpu time    0.1068: real time    0.1071
    FORHAR:  cpu time    0.0222: real time    0.0223
    MIXING:  cpu time    0.0058: real time    0.0058
    OFIELD:  cpu time    0.0001: real time    0.0002

  FORCE on cell =-STRESS in cart. coord.  units (eV):
  Direction    XX          YY          ZZ          XY          YZ          ZX
  --------------------------------------------------------------------------------------
  Alpha Z   975.62687   975.62687   975.62687
  Ewald   -5017.70715 -5030.26949 -5017.70717    -0.00003    -0.00003    -9.58086
  Hartree  1083.85030  1073.81082  1083.85036    -0.00001     0.00001    -9.63600
  E(xc)   -1025.85113 -1025.87924 -1025.85111    -0.00000    -0.00000     0.00341
  Local    -598.17520  -575.29144  -598.17463    -0.00020    -0.00047    19.24792
  n-local   402.35956   402.45763   402.46622     0.05295    -0.05802    -0.03897
  augment   344.62387   344.46387   344.62201     0.00126     0.00067    -0.01667
  Kinetic  3834.80196  3834.65358  3834.90202    -0.02401     0.02599     0.03032
  Fock        0.00000     0.00000     0.00000     0.00000     0.00000     0.00000
  -------------------------------------------------------------------------------------
  Total      -0.36817    -0.42740    -0.36817     0.00000     0.00000     0.00871
  in kB      -1.65892    -1.92579    -1.65892     0.00000     0.00000     0.03926
  external pressure =       -1.75 kB  Pullay stress =        0.00 kB


 VOLUME and BASIS-vectors are now :
 -----------------------------------------------------------------------------
  energy-cutoff  :      520.00
  volume of cell :      355.58
      direct lattice vectors                 reciprocal lattice vectors
     3.898486654  0.000000000 -3.898486654     0.171009359 -0.000000000 -0.085500433
     0.000000000  7.799248923  0.000000000     0.042754463  0.128217475  0.042754463
     3.898099460 -3.899624466  7.796586104     0.085508926 -0.000000000  0.085508926

  length of vectors
     5.513292698  7.799248923  9.549293443     0.191192376  0.141758982  0.120927883


 FORCES acting on ions
    electron-ion (+dipol)            ewald-force                    non-local-force                 convergence-correction
 -----------------------------------------------------------------------------------------------
   -.322E+02 0.277E+02 -.322E+02   0.319E+02 -.275E+02 0.319E+02   0.235E+00 -.180E+00 0.235E+00   0.183E-02 0.487E-02 0.183E-02
   -.953E-05 0.574E+02 -.539E-03   -.160E-03 -.570E+02 -.172E-03   -.171E-11 -.372E+00 -.171E-11   0.480E-05 0.967E-02 0.511E-05
   0.322E+02 0.277E+02 0.322E+02   -.319E+02 -.275E+02 -.319E+02   -.235E+00 -.180E+00 -.235E+00   -.183E-02 0.487E-02 -.183E-02
   -.322E+02 -.277E+02 -.322E+02   0.319E+02 0.275E+02 0.319E+02   0.235E+00 0.180E+00 0.235E+00   0.183E-02 -.487E-02 0.183E-02
   -.677E-05 -.574E+02 -.543E-03   -.153E-03 0.570E+02 -.165E-03   0.171E-11 0.372E+00 0.171E-11   0.515E-05 -.967E-02 0.625E-05
   0.322E+02 -.277E+02 0.322E+02   -.319E+02 0.275E+02 -.319E+02   -.235E+00 0.180E+00 -.235E+00   -.183E-02 -.487E-02 -.184E-02
   0.191E-04 -.455E-05 0.925E-04   -.576E-04 -.892E-04 -.201E-03   -.169E-20 -.847E-21 0.339E-20   0.375E-05 0.517E-06 0.343E-05
   0.179E+02 0.304E-04 0.179E+02   -.180E+02 -.402E-05 -.180E+02   -.294E-01 0.246E-10 -.294E-01   -.177E-02 0.344E-06 -.177E-02
   -.179E+02 0.557E-04 -.179E+02   0.180E+02 0.116E-03 0.180E+02   0.294E-01 -.246E-10 0.294E-01   0.177E-02 -.344E-06 0.177E-02
   0.145E-04 0.295E-04 0.108E-03   -.574E-04 -.126E-03 -.219E-03   0.000E+00 -.847E-21 0.169E-20   0.382E-05 0.148E-06 0.345E-05
   0.706E+01 0.705E-04 0.706E+01   -.684E+01 0.549E-05 -.684E+01   -.227E+00 0.190E-09 -.227E+00   -.486E-02 -.424E-06 -.486E-02
   -.706E+01 0.527E-04 -.706E+01   0.684E+01 0.137E-03 0.684E+01   0.227E+00 -.190E-09 0.227E+00   0.485E-02 -.161E-06 0.485E-02
   0.960E+01 -.382E-03 0.368E+02   -.965E+01 -.486E-04 -.399E+02   0.708E-01 -.130E-08 0.303E+01   -.141E-02 0.484E-06 -.112E-01
   -.960E+01 0.101E-03 -.368E+02   0.965E+01 0.215E-05 0.399E+02   -.708E-01 0.130E-08 -.303E+01   0.141E-02 0.219E-06 0.112E-01
   -.987E+01 0.612E-03 -.392E+02   0.103E+02 0.418E-04 0.351E+02   -.476E+00 -.149E-08 0.404E+01   -.127E-02 -.529E-06 -.202E-01
   -.679E+00 -.401E-03 0.405E+02   0.109E+01 -.266E-04 -.359E+02   -.433E+00 0.212E-08 -.463E+01   -.262E-02 0.174E-06 0.147E-01
   0.679E+00 0.124E-03 -.405E+02   -.109E+01 -.134E-04 0.359E+02   0.433E+00 -.212E-08 0.463E+01   0.262E-02 -.515E-07 -.147E-01
   0.987E+01 0.640E-03 0.392E+02   -.103E+02 0.247E-04 -.351E+02   0.476E+00 0.149E-08 -.404E+01   0.126E-02 0.965E-07 0.201E-01
   0.114E+02 -.386E+02 0.114E+02   -.117E+02 0.339E+02 -.117E+02   0.296E+00 0.477E+01 0.296E+00   -.188E-02 -.217E-01 -.188E-02
   -.838E-04 -.331E+02 -.569E-03   -.793E-04 0.346E+02 -.100E-03   -.715E-11 -.156E+01 -.715E-11   0.354E-05 0.138E-02 0.305E-05
   -.114E+02 -.386E+02 -.114E+02   0.117E+02 0.339E+02 0.117E+02   -.296E+00 0.477E+01 -.296E+00   0.187E-02 -.217E-01 0.187E-02
   0.114E+02 0.386E+02 0.114E+02   -.117E+02 -.339E+02 -.117E+02   0.296E+00 -.477E+01 0.296E+00   -.188E-02 0.217E-01 -.188E-02
   -.618E-04 0.331E+02 -.577E-03   -.799E-04 -.346E+02 -.101E-03   0.715E-11 0.156E+01 0.715E-11   0.364E-05 -.138E-02 0.316E-05
   -.114E+02 0.386E+02 -.114E+02   0.117E+02 -.339E+02 0.117E+02   -.296E+00 -.477E+01 -.296E+00   0.187E-02 0.217E-01 0.187E-02
   0.368E+02 -.394E-03 0.960E+01   -.399E+02 -.486E-04 -.965E+01   0.303E+01 -.130E-08 0.708E-01   -.112E-01 0.582E-06 -.141E-02
   -.368E+02 0.736E-04 -.960E+01   0.399E+02 0.215E-05 0.965E+01   -.303E+01 0.130E-08 -.708E-01   0.112E-01 0.152E-06 0.141E-02
   -.392E+02 0.615E-03 -.987E+01   0.351E+02 0.418E-04 0.103E+02   0.404E+01 -.149E-08 -.476E+00   -.202E-01 -.447E-06 -.127E-02
   0.405E+02 -.446E-03 -.679E+00   -.359E+02 -.266E-04 0.109E+01   -.463E+01 0.212E-08 -.433E+00   0.147E-01 0.131E-06 -.262E-02
   -.405E+02 0.114E-03 0.679E+00   0.359E+02 -.134E-04 -.109E+01   0.463E+01 -.212E-08 0.433E+00   -.147E-01 0.168E-07 0.262E-02
   0.392E+02 0.592E-03 0.987E+01   -.351E+02 0.247E-04 -.103E+02   -.404E+01 0.149E-08 0.476E+00   0.202E-01 0.419E-07 0.126E-02
 -----------------------------------------------------------------------------------------------
   -.117E-02 0.265E-02 -.238E-02   0.156E-12 -.797E-13 -.782E-13   0.000E+00 -.888E-15 0.105E-14   -.243E-05 0.242E-06 -.218E-05
 
 
 POSITION                                       TOTAL-FORCE (eV/Angst)
 -----------------------------------------------------------------------------------
      3.87272      0.01965     -0.02577        -0.032706      0.007021     -0.032706
      3.89823      0.04056      3.89823         0.000000      0.013353      0.000000
      0.02564      3.91927      0.02564         0.032706      0.007021      0.032706
      3.87272      3.87997     -0.02577        -0.032706     -0.007021     -0.032706
      3.89823      3.85906      3.89823        -0.000000     -0.013353     -0.000000
      0.02564      7.77960      0.02564         0.032706     -0.007021      0.032706
      5.84747     -1.94981      1.94899         0.000000      0.000000      0.000000
      1.95155      1.94981     -1.94694        -0.037315      0.000000     -0.037315
      1.94681      5.84944      1.94681         0.037315     -0.000000      0.037315
      5.84747      1.94981      1.94899         0.000000      0.000000      0.000000
      5.84456      1.94981      5.84456        -0.007365      0.000000     -0.007365
      1.95190      1.94981      1.95190         0.007365     -0.000000      0.007365
      5.84512     -1.94981      3.93824         0.018057     -0.000000      0.005050
      1.95134      5.84944      3.85822        -0.018057      0.000000     -0.005050
      1.94641      5.84944      0.02304        -0.047988      0.000000     -0.009587
      5.84243      1.94981      3.86215        -0.023445      0.000000     -0.005476
      5.85252      1.94981      0.03582         0.023445     -0.000000      0.005476
      1.95195      1.94981     -0.02317         0.047988     -0.000000      0.009587
      5.84560     -3.86217      5.84560         0.035301      0.000192      0.035301
      5.84747      3.88405      1.94899        -0.000000     -0.043424     -0.000000
      1.95085      3.93708      1.95085        -0.035301      0.000192     -0.035301
      5.84560     -0.03745      5.84560         0.035301     -0.000192      0.035301
      5.84747      0.01558      1.94899         0.000000      0.043424      0.000000
      1.95085     -0.03745      1.95085        -0.035301     -0.000192     -0.035301
      3.93824     -1.94981      5.84512         0.005050     -0.000000      0.018057
      3.85822      5.84944      1.95134        -0.005050      0.000000     -0.018057
      3.92153      5.84944     -1.95208        -0.009587      0.000000     -0.047988
      3.86215      1.94981      5.84243        -0.005476      0.000000     -0.023445
      3.93431      1.94981      1.95403         0.005476     -0.000000      0.023445
      3.87532      1.94981     -1.94654         0.009587     -0.000000      0.047988
 -----------------------------------------------------------------------------------
    total drift:                               -0.001168      0.002654     -0.002382


--------------------------------------------------------------------------------------------------------



  FREE ENERGIE OF THE ION-ELECTRON SYSTEM (eV)
  ---------------------------------------------------
  free  energy   TOTEN  =      -226.89806581 eV

  energy  without entropy=     -226.89806581  energy(sigma->0) =     -226.89806581
 


--------------------------------------------------------------------------------------------------------


    POTLOK:  cpu time    0.1095: real time    0.1100


--------------------------------------------------------------------------------------------------------


     LOOP+:  cpu time  117.1397: real time  117.6883
    4ORBIT:  cpu time    0.0000: real time    0.0000
 


 total charge     
 
# of ion       s       p       d       f       tot
--------------------------------------------------
    1        1.998   5.697   0.482   0.187   8.364
    2        1.999   5.697   0.483   0.188   8.367
    3        1.998   5.697   0.482   0.187   8.364
    4        1.998   5.697   0.482   0.187   8.364
    5        1.999   5.697   0.483   0.188   8.366
    6        1.999   5.697   0.482   0.187   8.364
    7        0.290   0.426   4.947   0.000   5.663
    8        0.350   0.559   4.859   0.000   5.768
    9        0.350   0.559   4.859   0.000   5.768
   10        0.347   0.551   4.862   0.000   5.760
   11        0.381   0.545   8.318   0.000   9.243
   12        0.381   0.545   8.318   0.000   9.243
   13        1.564   3.457   0.000   0.000   5.021
   14        1.564   3.457   0.000   0.000   5.021
   15        1.560   3.458   0.000   0.000   5.018
   16        1.560   3.457   0.000   0.000   5.017
   17        1.560   3.457   0.000   0.000   5.017
   18        1.560   3.458   0.000   0.000   5.018
   19        1.560   3.456   0.000   0.000   5.016
   20        1.564   3.461   0.000   0.000   5.026
   21        1.560   3.456   0.000   0.000   5.016
   22        1.560   3.456   0.000   0.000   5.016
   23        1.564   3.461   0.000   0.000   5.026
   24        1.560   3.456   0.000   0.000   5.016
   25        1.564   3.460   0.000   0.000   5.024
   26        1.564   3.460   0.000   0.000   5.024
   27        1.560   3.460   0.000   0.000   5.019
   28        1.560   3.459   0.000   0.000   5.019
   29        1.560   3.459   0.000   0.000   5.019
   30        1.560   3.460   0.000   0.000   5.019
--------------------------------------------------
tot         42.194  99.616  39.054   1.123 181.987

 


 magnetization (x)
 
# of ion       s       p       d       f       tot
--------------------------------------------------
    1        0.001   0.001   0.009   0.004   0.014
    2        0.001   0.001   0.010   0.005   0.017
    3        0.001   0.001   0.009   0.004   0.014
    4        0.001   0.001   0.009   0.004   0.014
    5        0.001   0.001   0.010   0.005   0.017
    6        0.001   0.001   0.009   0.004   0.014
    7        0.020   0.021   4.029   0.000   4.070
    8        0.025   0.037   3.339   0.000   3.402
    9        0.025   0.037   3.339   0.000   3.402
   10        0.026   0.037   3.384   0.000   3.446
   11        0.004  -0.005   1.702   0.000   1.702
   12        0.004  -0.005   1.702   0.000   1.702
   13        0.005  -0.036   0.000   0.000  -0.030
   14        0.005  -0.036   0.000   0.000  -0.030
   15        0.005  -0.001   0.000   0.000   0.004
   16        0.004  -0.007   0.000   0.000  -0.003
   17        0.004  -0.007   0.000   0.000  -0.003
   18        0.005  -0.001   0.000   0.000   0.004
   19        0.004  -0.007   0.000   0.000  -0.002
   20        0.006  -0.031   0.000   0.000  -0.025
   21        0.004  -0.007   0.000   0.000  -0.003
   22        0.004  -0.007   0.000   0.000  -0.003
   23        0.006  -0.031   0.000   0.000  -0.025
   24        0.004  -0.007   0.000   0.000  -0.002
   25        0.005  -0.033   0.000   0.000  -0.028
   26        0.005  -0.033   0.000   0.000  -0.028
   27        0.005  -0.000   0.000   0.000   0.004
   28        0.004  -0.006   0.000   0.000  -0.002
   29        0.004  -0.006   0.000   0.000  -0.002
   30        0.005  -0.000   0.000   0.000   0.005
--------------------------------------------------
tot          0.197  -0.130  17.551   0.026  17.644

 
 BZINTS: Fermi energy:  7.959558;222.000000 electrons
         Band energy:-370.833048;  BLOECHL correction:  0.000000

 total amount of memory used by VASP MPI-rank0    80095. kBytes
=======================================================================

   base      :      30000. kBytes
   nonlr-proj:       8008. kBytes
   fftplans  :       3465. kBytes
   grid      :      10128. kBytes
   one-center:        294. kBytes
   wavefun   :      28200. kBytes
 
  
  
 General timing and accounting informations for this job:
 ========================================================
  
                  Total CPU time used (sec):      126.711
                            User time (sec):      123.553
                          System time (sec):        3.159
                         Elapsed time (sec):      127.561
  
                   Maximum memory used (kb):      135876.
                   Average memory used (kb):           0.
  
                          Minor page faults:        45085
                          Major page faults:            0
                 Voluntary context switches:         1088
