       N       E                     dE             d eps       ncg     rms          rms(c)
DAV:   1     0.357001083409E+04    0.35700E+04   -0.77504E+04  5560   0.243E+03
DAV:   2     0.124294727438E+04   -0.23271E+04   -0.20942E+04  5792   0.641E+02
DAV:   3     0.270841949066E+03   -0.97211E+03   -0.87661E+03  5976   0.332E+02
DAV:   4    -0.160450714284E+03   -0.43129E+03   -0.40756E+03  8296   0.184E+02
DAV:   5    -0.254480083375E+03   -0.94029E+02   -0.90303E+02  9440   0.964E+01    0.722E+01
RMM:   6    -0.229045013003E+03    0.25435E+02   -0.74450E+02  8680   0.108E+02    0.109E+02
RMM:   7    -0.232743589424E+03   -0.36986E+01   -0.15946E+02  9281   0.349E+01    0.590E+01
RMM:   8    -0.223280771083E+03    0.94628E+01   -0.10980E+02  6550   0.549E+01    0.294E+01
RMM:   9    -0.227812260040E+03   -0.45315E+01   -0.53683E+01  8471   0.191E+01    0.218E+01
RMM:  10    -0.227139397382E+03    0.67286E+00   -0.92054E+00  8519   0.108E+01    0.138E+01
RMM:  11    -0.226632044281E+03    0.50735E+00   -0.60432E+00  8972   0.711E+00    0.939E+00
RMM:  12    -0.226630134886E+03    0.19094E-02   -0.28297E+00  9532   0.402E+00    0.774E+00
RMM:  13    -0.226637569525E+03   -0.74346E-02   -0.66896E-01  8897   0.215E+00    0.628E+00
RMM:  14    -0.226653925303E+03   -0.16356E-01   -0.20315E-01  9018   0.126E+00    0.459E+00
RMM:  15    -0.226654042334E+03   -0.11703E-03   -0.97117E-02  8470   0.872E-01    0.307E+00
RMM:  16    -0.226650546905E+03    0.34954E-02   -0.74747E-02  7688   0.917E-01    0.218E+00
RMM:  17    -0.226648134442E+03    0.24125E-02   -0.13631E-01  8167   0.103E+00    0.753E-01
RMM:  18    -0.226649746494E+03   -0.16121E-02   -0.26946E-02  6543   0.539E-01    0.526E-01
RMM:  19    -0.226651368733E+03   -0.16222E-02   -0.12031E-02  5804   0.419E-01    0.422E-01
RMM:  20    -0.226651832511E+03   -0.46378E-03   -0.63415E-03  5114   0.346E-01
   1 F= -.22665183E+03 E0= -.22665183E+03  d E =0.000000E+00  mag=    18.0191
