       N       E                     dE             d eps       ncg     rms          rms(c)
DAV:   1     0.356565090703E+04    0.35657E+04   -0.78537E+04  7508   0.245E+03
DAV:   2     0.123707307845E+04   -0.23286E+04   -0.20965E+04  7824   0.634E+02
DAV:   3     0.269342882923E+03   -0.96773E+03   -0.86582E+03  7784   0.327E+02
DAV:   4    -0.159172242369E+03   -0.42852E+03   -0.40233E+03 11272   0.180E+02
DAV:   5    -0.249695673706E+03   -0.90523E+02   -0.87002E+02 12766   0.984E+01    0.757E+01
RMM:   6    -0.224002549826E+03    0.25693E+02   -0.71714E+02 11695   0.106E+02    0.104E+02
RMM:   7    -0.224501694773E+03   -0.49914E+00   -0.14178E+02 12469   0.345E+01    0.477E+01
RMM:   8    -0.217254892674E+03    0.72468E+01   -0.66323E+01  9173   0.405E+01    0.250E+01
RMM:   9    -0.220151456606E+03   -0.28966E+01   -0.32490E+01 11442   0.172E+01    0.207E+01
RMM:  10    -0.220429121047E+03   -0.27766E+00   -0.63134E+00 12522   0.749E+00    0.140E+01
RMM:  11    -0.220307527011E+03    0.12159E+00   -0.29915E+00 12465   0.488E+00    0.687E+00
RMM:  12    -0.220273785799E+03    0.33741E-01   -0.18123E+00 12329   0.412E+00    0.511E+00
RMM:  13    -0.220315582194E+03   -0.41796E-01   -0.67487E-01 12419   0.200E+00    0.302E+00
RMM:  14    -0.220342331703E+03   -0.26750E-01   -0.21620E-01 12081   0.141E+00    0.181E+00
RMM:  15    -0.220347678782E+03   -0.53471E-02   -0.93407E-02 11322   0.765E-01    0.976E-01
RMM:  16    -0.220347336855E+03    0.34193E-03   -0.45055E-02 10580   0.641E-01    0.570E-01
RMM:  17    -0.220348930395E+03   -0.15935E-02   -0.27413E-02  9729   0.462E-01    0.297E-01
RMM:  18    -0.220350184637E+03   -0.12542E-02   -0.13239E-02  7878   0.392E-01    0.148E-01
RMM:  19    -0.220350650810E+03   -0.46617E-03   -0.69794E-03  6862   0.327E-01
   1 F= -.22035065E+03 E0= -.22035065E+03  d E =0.000000E+00  mag=    14.9926
