       N       E                     dE             d eps       ncg     rms          rms(c)
DAV:   1     0.292057931509E+04    0.29206E+04   -0.66086E+04  6184   0.246E+03
DAV:   2     0.982772292284E+03   -0.19378E+04   -0.17463E+04  6488   0.630E+02
DAV:   3     0.188633499760E+03   -0.79414E+03   -0.72204E+03  6776   0.327E+02
DAV:   4    -0.142971684691E+03   -0.33161E+03   -0.31456E+03  9368   0.175E+02
DAV:   5    -0.212087948949E+03   -0.69116E+02   -0.66999E+02 10552   0.900E+01    0.662E+01
RMM:   6    -0.190721743569E+03    0.21366E+02   -0.61390E+02  9656   0.104E+02    0.980E+01
RMM:   7    -0.189187726599E+03    0.15340E+01   -0.10811E+02 10080   0.361E+01    0.399E+01
RMM:   8    -0.183855650207E+03    0.53321E+01   -0.48250E+01  7566   0.384E+01    0.192E+01
RMM:   9    -0.186815374670E+03   -0.29597E+01   -0.32256E+01  9445   0.173E+01    0.151E+01
RMM:  10    -0.186979449505E+03   -0.16407E+00   -0.60126E+00 10236   0.698E+00    0.803E+00
RMM:  11    -0.186726021700E+03    0.25343E+00   -0.27108E+00  9614   0.647E+00    0.586E+00
RMM:  12    -0.186798095385E+03   -0.72074E-01   -0.10957E+00 10338   0.291E+00    0.367E+00
RMM:  13    -0.186809836318E+03   -0.11741E-01   -0.42683E-01 10259   0.190E+00    0.288E+00
RMM:  14    -0.186827594631E+03   -0.17758E-01   -0.19171E-01  9753   0.113E+00    0.192E+00
RMM:  15    -0.186838687071E+03   -0.11092E-01   -0.77867E-02  9012   0.988E-01    0.100E+00
RMM:  16    -0.186839092469E+03   -0.40540E-03   -0.35693E-02  8104   0.543E-01    0.720E-01
RMM:  17    -0.186838664997E+03    0.42747E-03   -0.29813E-02  8249   0.562E-01    0.213E-01
RMM:  18    -0.186839931457E+03   -0.12665E-02   -0.14834E-02  6592   0.437E-01    0.126E-01
RMM:  19    -0.186840800966E+03   -0.86951E-03   -0.69994E-03  5667   0.365E-01
   1 F= -.18684080E+03 E0= -.18684080E+03  d E =0.000000E+00  mag=    14.0001
