 vasp.5.4.4.18Apr17-6-g9f103f2a35 (build Oct 03 2018 13:58:34) complex          
  
 executed on             LinuxIFC date 2019.06.04  01:57:07
 running on   40 total cores
 distrk:  each k-point on   20 cores,    2 groups
 distr:  one band on NCORES_PER_BAND=  10 cores,    2 groups


--------------------------------------------------------------------------------------------------------


 INCAR:
 POTCAR:    PAW_PBE La 06Sep2000                  
 POTCAR:    PAW_PBE Mn 06Sep2000                  
 POTCAR:    PAW_PBE Ni 02Aug2007                  
 POTCAR:    PAW_PBE O 08Apr2002                   

 ----------------------------------------------------------------------------- 
|                                                                             |
|           W    W    AA    RRRRR   N    N  II  N    N   GGGG   !!!           |
|           W    W   A  A   R    R  NN   N  II  NN   N  G    G  !!!           |
|           W    W  A    A  R    R  N N  N  II  N N  N  G       !!!           |
|           W WW W  AAAAAA  RRRRR   N  N N  II  N  N N  G  GGG   !            |
|           WW  WW  A    A  R   R   N   NN  II  N   NN  G    G                |
|           W    W  A    A  R    R  N    N  II  N    N   GGGG   !!!           |
|                                                                             |
|      You have enabled k-point parallelism (KPAR>1).                         |
|      This developmental code was originally  written by Paul Kent at ORNL,  |
|      and carefully double checked in Vienna.                                |
|      GW as well as linear response parallelism added by Martijn Marsman     |
|      and Georg Kresse.                                                      |
|      Carefully verify results versus KPAR=1.                                |
|      Report problems to Paul Kent and Vienna.                               |
|                                                                             |
 ----------------------------------------------------------------------------- 

 POTCAR:    PAW_PBE La 06Sep2000                  
   VRHFIN =La : [core=Kr4d]                                                     
   LEXCH  = PE                                                                  
   EATOM  =   865.9763 eV,   63.6475 Ry                                         
                                                                                
   TITEL  = PAW_PBE La 06Sep2000                                                
   LULTRA =        F    use ultrasoft PP ?                                      
   IUNSCR =        1    unscreen: 0-lin 1-nonlin 2-no                           
   RPACOR =    2.300    partial core radius                                     
   POMASS =  138.900; ZVAL   =   11.000    mass and valenz                      
   RCORE  =    2.800    outmost cutoff radius                                   
   RWIGS  =    2.900; RWIGS  =    1.535    wigner-seitz radius (au A)           
   ENMAX  =  219.292; ENMIN  =  164.469 eV                                      
   RCLOC  =    1.601    cutoff for local pot                                    
   LCOR   =        T    correct aug charges                                     
   LPAW   =        T    paw PP                                                  
   EAUG   =  583.575                                                            
   DEXC   =    0.000                                                            
   RMAX   =    2.853    core radius for proj-oper                               
   RAUG   =    1.300    factor for augmentation sphere                          
   RDEP   =    2.802    radius for radial grids                                 
   RDEPT  =    2.156    core radius for aug-charge                              
                                                                                
   Atomic configuration                                                         
   14 entries                                                                   
     n  l   j            E        occ.                                          
     1  0  0.50    -38741.0879   2.0000                                         
     2  0  0.50     -6166.6801   2.0000                                         
     2  1  1.50     -5526.1593   6.0000                                         
     3  0  0.50     -1319.0200   2.0000                                         
     3  1  1.50     -1114.5963   6.0000                                         
     3  2  2.50      -821.1793  10.0000                                         
     4  0  0.50      -266.3851   2.0000                                         
     4  1  1.50      -199.9276   6.0000                                         
     4  2  2.50      -103.8239  10.0000                                         
     5  0  0.50       -38.9172   2.0000                                         
     6  0  0.50        -3.6792   2.0000                                         
     5  1  1.50       -22.3948   6.0000                                         
     5  2  2.50        -3.0911   0.9999                                         
     4  3  2.50        -4.3603   0.0001                                         
   Description                                                                  
     l       E           TYP  RCUT    TYP  RCUT                                 
     0    -38.9171645     23  2.800                                             
     0     -3.6792381     23  2.800                                             
     1    -22.3948300     23  2.500                                             
     1     27.2116520     23  2.500                                             
     2     -3.0910934     23  2.500                                             
     2      1.0119135     23  2.500                                             
     3     -4.3602911     23  2.800                                             
     3     -5.7208737     23  2.800                                             
  local pseudopotential read in
  partial core-charges read in
  partial kinetic energy density read in
  atomic valenz-charges read in
  non local Contribution for L=           0  read in
    real space projection operators read in
  non local Contribution for L=           0  read in
    real space projection operators read in
  non local Contribution for L=           1  read in
    real space projection operators read in
  non local Contribution for L=           1  read in
    real space projection operators read in
  non local Contribution for L=           2  read in
    real space projection operators read in
  non local Contribution for L=           2  read in
    real space projection operators read in
  non local Contribution for L=           3  read in
    real space projection operators read in
  non local Contribution for L=           3  read in
    real space projection operators read in
    PAW grid and wavefunctions read in
 
   number of l-projection  operators is LMAX  =           8
   number of lm-projection operators is LMMAX =          32
 
 POTCAR:    PAW_PBE Mn 06Sep2000                  
   VRHFIN =Mn: d6 s1                                                            
   LEXCH  = PE                                                                  
   EATOM  =   416.7541 eV,   30.6306 Ry                                         
                                                                                
   TITEL  = PAW_PBE Mn 06Sep2000                                                
   LULTRA =        F    use ultrasoft PP ?                                      
   IUNSCR =        1    unscreen: 0-lin 1-nonlin 2-no                           
   RPACOR =    2.000    partial core radius                                     
   POMASS =   54.938; ZVAL   =    7.000    mass and valenz                      
   RCORE  =    2.300    outmost cutoff radius                                   
   RWIGS  =    2.500; RWIGS  =    1.323    wigner-seitz radius (au A)           
   ENMAX  =  269.864; ENMIN  =  202.398 eV                                      
   RCLOC  =    1.725    cutoff for local pot                                    
   LCOR   =        T    correct aug charges                                     
   LPAW   =        T    paw PP                                                  
   EAUG   =  500.711                                                            
   DEXC   =    0.000                                                            
   RMAX   =    2.343    core radius for proj-oper                               
   RAUG   =    1.300    factor for augmentation sphere                          
   RDEP   =    2.338    radius for radial grids                                 
   RDEPT  =    1.911    core radius for aug-charge                              
                                                                                
   Atomic configuration                                                         
    9 entries                                                                   
     n  l   j            E        occ.                                          
     1  0  0.50     -6424.8288   2.0000                                         
     2  0  0.50      -739.1154   2.0000                                         
     2  1  1.50      -625.3949   6.0000                                         
     3  0  0.50       -81.6100   2.0000                                         
     3  1  1.50       -50.4667   6.0000                                         
     3  2  2.50        -3.3745   6.0000                                         
     4  0  0.50        -4.1331   1.0000                                         
     4  1  0.50        -4.0817   0.0000                                         
     4  3  2.50        -1.3606   0.0000                                         
   Description                                                                  
     l       E           TYP  RCUT    TYP  RCUT                                 
     2     -3.3744664     23  2.300                                             
     2     -4.7350490     23  2.300                                             
     0     -4.1331408     23  2.300                                             
     0      7.6656614     23  2.300                                             
     1     -2.7211652     23  2.300                                             
     1     20.4087390     23  2.300                                             
  local pseudopotential read in
  partial core-charges read in
  partial kinetic energy density read in
  atomic valenz-charges read in
  non local Contribution for L=           2  read in
    real space projection operators read in
  non local Contribution for L=           2  read in
    real space projection operators read in
  non local Contribution for L=           0  read in
    real space projection operators read in
  non local Contribution for L=           0  read in
    real space projection operators read in
  non local Contribution for L=           1  read in
    real space projection operators read in
  non local Contribution for L=           1  read in
    real space projection operators read in
    PAW grid and wavefunctions read in
 
   number of l-projection  operators is LMAX  =           6
   number of lm-projection operators is LMMAX =          18
 
 POTCAR:    PAW_PBE Ni 02Aug2007                  
   VRHFIN =Ni:                                                                  
   LEXCH  = PE                                                                  
   EATOM  =  1077.6739 eV,   79.2068 Ry                                         
                                                                                
   TITEL  = PAW_PBE Ni 02Aug2007                                                
   LULTRA =        F    use ultrasoft PP ?                                      
   IUNSCR =        1    unscreen: 0-lin 1-nonlin 2-no                           
   RPACOR =    2.000    partial core radius                                     
   POMASS =   58.690; ZVAL   =   10.000    mass and valenz                      
   RCORE  =    2.300    outmost cutoff radius                                   
   RWIGS  =    2.430; RWIGS  =    1.286    wigner-seitz radius (au A)           
   ENMAX  =  269.532; ENMIN  =  202.149 eV                                      
   RCLOC  =    1.201    cutoff for local pot                                    
   LCOR   =        T    correct aug charges                                     
   LPAW   =        T    paw PP                                                  
   EAUG   =  544.565                                                            
   DEXC   =    0.000                                                            
   RMAX   =    2.357    core radius for proj-oper                               
   RAUG   =    1.300    factor for augmentation sphere                          
   RDEP   =    2.390    radius for radial grids                                 
   RDEPT  =    1.838    core radius for aug-charge                              
                                                                                
   Atomic configuration                                                         
    9 entries                                                                   
     n  l   j            E        occ.                                          
     1  0  0.50     -8206.4253   2.0000                                         
     2  0  0.50      -976.1748   2.0000                                         
     2  1  1.50      -839.0571   6.0000                                         
     3  0  0.50      -105.9991   2.0000                                         
     3  1  1.50       -66.4603   6.0000                                         
     3  2  2.50        -4.6458   9.0000                                         
     4  0  0.50        -4.4926   1.0000                                         
     4  1  1.50        -4.0817   0.0000                                         
     4  3  2.50        -1.3606   0.0000                                         
   Description                                                                  
     l       E           TYP  RCUT    TYP  RCUT                                 
     2     -4.6457903     23  2.300                                             
     2     -6.0063729     23  2.300                                             
     0     -4.4925590     23  2.300                                             
     0      5.0102601     23  2.300                                             
     1     -2.7211652     23  2.300                                             
     1     16.5183231     23  2.300                                             
  local pseudopotential read in
  partial core-charges read in
  partial kinetic energy density read in
  atomic valenz-charges read in
  non local Contribution for L=           2  read in
    real space projection operators read in
  non local Contribution for L=           2  read in
    real space projection operators read in
  non local Contribution for L=           0  read in
    real space projection operators read in
  non local Contribution for L=           0  read in
    real space projection operators read in
  non local Contribution for L=           1  read in
    real space projection operators read in
  non local Contribution for L=           1  read in
    real space projection operators read in
    PAW grid and wavefunctions read in
 
   number of l-projection  operators is LMAX  =           6
   number of lm-projection operators is LMMAX =          18
 
 POTCAR:    PAW_PBE O 08Apr2002                   
   VRHFIN =O: s2p4                                                              
   LEXCH  = PE                                                                  
   EATOM  =   432.3788 eV,   31.7789 Ry                                         
                                                                                
   TITEL  = PAW_PBE O 08Apr2002                                                 
   LULTRA =        F    use ultrasoft PP ?                                      
   IUNSCR =        1    unscreen: 0-lin 1-nonlin 2-no                           
   RPACOR =    1.200    partial core radius                                     
   POMASS =   16.000; ZVAL   =    6.000    mass and valenz                      
   RCORE  =    1.520    outmost cutoff radius                                   
   RWIGS  =    1.550; RWIGS  =    0.820    wigner-seitz radius (au A)           
   ENMAX  =  400.000; ENMIN  =  300.000 eV                                      
   ICORE  =        2    local potential                                         
   LCOR   =        T    correct aug charges                                     
   LPAW   =        T    paw PP                                                  
   EAUG   =  605.392                                                            
   DEXC   =    0.000                                                            
   RMAX   =    1.553    core radius for proj-oper                               
   RAUG   =    1.300    factor for augmentation sphere                          
   RDEP   =    1.550    radius for radial grids                                 
   RDEPT  =    1.329    core radius for aug-charge                              
                                                                                
   Atomic configuration                                                         
    4 entries                                                                   
     n  l   j            E        occ.                                          
     1  0  0.50      -514.6923   2.0000                                         
     2  0  0.50       -23.9615   2.0000                                         
     2  1  0.50        -9.0305   4.0000                                         
     3  2  1.50        -9.5241   0.0000                                         
   Description                                                                  
     l       E           TYP  RCUT    TYP  RCUT                                 
     0    -23.9615318     23  1.200                                             
     0     -9.5240782     23  1.200                                             
     1     -9.0304911     23  1.520                                             
     1      8.1634956     23  1.520                                             
     2     -9.5240782      7  1.500                                             
  local pseudopotential read in
  partial core-charges read in
  partial kinetic energy density read in
  kinetic energy density of atom read in
  atomic valenz-charges read in
  non local Contribution for L=           0  read in
    real space projection operators read in
  non local Contribution for L=           0  read in
    real space projection operators read in
  non local Contribution for L=           1  read in
    real space projection operators read in
  non local Contribution for L=           1  read in
    real space projection operators read in
    PAW grid and wavefunctions read in
 
   number of l-projection  operators is LMAX  =           4
   number of lm-projection operators is LMMAX =           8
 
 Optimization of the real space projectors (new method)

 maximal supplied QI-value         = 13.42
 optimisation between [QCUT,QGAM] = [ 11.67, 23.35] = [ 38.16,152.62] Ry 
 Optimized for a Real-space Cutoff    1.63 Angstroem

   l    n(q)    QCUT    max X(q) W(low)/X(q) W(high)/X(q)  e(spline) 
   0     11    11.673    13.882    0.27E-04    0.79E-05    0.11E-06
   0     11    11.673    12.184    0.39E-04    0.13E-04    0.19E-06
   1     11    11.673     4.523    0.73E-05    0.76E-05    0.12E-06
   1     11    11.673     4.424    0.87E-05    0.13E-04    0.19E-06
   2     10    11.673    52.481    0.65E-04    0.36E-04    0.18E-06
   2     10    11.673    38.501    0.61E-04    0.33E-04    0.17E-06
   3     10    11.673    65.631    0.17E-03    0.14E-03    0.37E-06
   3     10    11.673    56.854    0.17E-03    0.14E-03    0.37E-06
 Optimization of the real space projectors (new method)

 maximal supplied QI-value         = 16.25
 optimisation between [QCUT,QGAM] = [ 11.54, 23.24] = [ 37.28,151.24] Ry 
 Optimized for a Real-space Cutoff    1.53 Angstroem

   l    n(q)    QCUT    max X(q) W(low)/X(q) W(high)/X(q)  e(spline) 
   2     10    11.539   110.144    0.12E-03    0.13E-03    0.25E-06
   2     10    11.539   103.200    0.12E-03    0.13E-03    0.25E-06
   0     11    11.539    68.437    0.46E-04    0.21E-04    0.32E-06
   0     11    11.539    33.971    0.37E-04    0.19E-04    0.29E-06
   1     10    11.539    17.065    0.51E-04    0.22E-04    0.13E-06
   1     10    11.539    12.540    0.41E-04    0.18E-04    0.11E-06
 Optimization of the real space projectors (new method)

 maximal supplied QI-value         = 16.25
 optimisation between [QCUT,QGAM] = [ 11.54, 23.24] = [ 37.28,151.24] Ry 
 Optimized for a Real-space Cutoff    1.45 Angstroem

   l    n(q)    QCUT    max X(q) W(low)/X(q) W(high)/X(q)  e(spline) 
   2      9    11.539    60.317    0.19E-03    0.47E-04    0.16E-06
   2      9    11.539    55.921    0.19E-03    0.48E-04    0.16E-06
   0     10    11.539    51.690    0.80E-04    0.50E-04    0.24E-06
   0     10    11.539    30.015    0.73E-04    0.45E-04    0.22E-06
   1     10    11.539    18.849    0.87E-04    0.16E-03    0.71E-07
   1     10    11.539    14.624    0.73E-04    0.13E-03    0.64E-07
 Optimization of the real space projectors (new method)

 maximal supplied QI-value         = 24.76
 optimisation between [QCUT,QGAM] = [ 11.64, 23.27] = [ 37.91,151.63] Ry 
 Optimized for a Real-space Cutoff    1.14 Angstroem

   l    n(q)    QCUT    max X(q) W(low)/X(q) W(high)/X(q)  e(spline) 
   0      8    11.635    20.381    0.10E-03    0.33E-03    0.24E-06
   0      8    11.635    15.268    0.11E-03    0.35E-03    0.26E-06
   1      7    11.635     5.964    0.24E-03    0.31E-03    0.30E-06
   1      7    11.635     5.382    0.22E-03    0.25E-03    0.26E-06
  PAW_PBE La 06Sep2000                  :
 energy of atom  1       EATOM= -865.9763
 kinetic energy error for atom=    0.0009 (will be added to EATOM!!)
  PAW_PBE Mn 06Sep2000                  :
 energy of atom  2       EATOM= -416.7541
 kinetic energy error for atom=    0.0024 (will be added to EATOM!!)
  PAW_PBE Ni 02Aug2007                  :
 energy of atom  3       EATOM=-1077.6739
 kinetic energy error for atom=    0.0030 (will be added to EATOM!!)
  PAW_PBE O 08Apr2002                   :
 energy of atom  4       EATOM= -432.3788
 kinetic energy error for atom=    0.0208 (will be added to EATOM!!)
 
 
 POSCAR: SCEL5_1_5_1_2_0_0/1                     
  positions in direct lattice
  velocities in cartesian coordinates
 exchange correlation table for  LEXCH =        8
   RHO(1)=    0.500       N(1)  =     2000
   RHO(2)=  100.500       N(2)  =     4000
 


--------------------------------------------------------------------------------------------------------


 ion  position               nearest neighbor table
   1  0.000  0.406  0.187-  19 2.66  19 2.66  24 2.67  25 2.67  15 2.77  15 2.77  14 2.77  14 2.77
                            10 3.30  10 3.30   9 3.31   9 3.31   4 3.62
   2  0.000  0.795  0.391-  24 2.65  14 2.70  14 2.70  18 2.71  18 2.71  22 2.74  23 2.75  16 2.78
                            16 2.78  13 2.81  13 2.81   9 3.29   9 3.29   6 3.36   6 3.36   8 3.39
   3  0.000  0.205  0.609-  25 2.65  12 2.70  12 2.70  20 2.71  20 2.71  22 2.74  21 2.75  17 2.78
                            17 2.78  13 2.81  13 2.81  10 3.29  10 3.29   6 3.36   6 3.36   7 3.39
   4  0.000  0.594  0.813-  19 2.66  19 2.66  25 2.67  24 2.67  11 2.77  11 2.77  12 2.77  12 2.77
                             9 3.30   9 3.30  10 3.31  10 3.31   1 3.62
   5  0.000  0.000  0.000-  24 2.74  25 2.74  11 2.75  15 2.75  11 2.75  15 2.75  21 2.75  23 2.75
                            18 2.76  20 2.76  18 2.76  20 2.76   9 3.36  10 3.36   9 3.36  10 3.36
   6  0.500  0.500  0.500-  12 1.89  14 1.89  22 1.95  22 1.95  16 1.97  17 1.97   2 3.36   2 3.36
                             3 3.36   3 3.36
   7  0.500  0.899  0.699-  11 1.89  20 1.92  16 1.92  13 1.94  21 1.95  21 1.95   5 3.38   5 3.38
                             3 3.39   3 3.39
   8  0.500  0.101  0.301-  15 1.89  18 1.92  17 1.92  13 1.94  23 1.95  23 1.95   5 3.38   5 3.38
                             2 3.39   2 3.39
   9  0.500  0.702  0.100-  24 1.95  24 1.95  19 1.96  18 1.98  11 1.99  14 2.00   2 3.29   2 3.29
                             4 3.30   4 3.30   1 3.31   1 3.31   5 3.36   5 3.36
  10  0.500  0.298  0.900-  25 1.95  25 1.95  19 1.96  20 1.98  15 1.99  12 2.00   3 3.29   3 3.29
                             1 3.30   1 3.30   4 3.31   4 3.31   5 3.36   5 3.36
  11  0.500  0.804  0.895-   7 1.89   9 1.99   5 2.75   5 2.75   4 2.77   4 2.77
  12  0.500  0.401  0.694-   6 1.89  10 2.00   3 2.70   3 2.70   4 2.77   4 2.77
  13  0.500  0.000  0.500-   7 1.94   8 1.94   2 2.81   3 2.81   2 2.81   3 2.81
  14  0.500  0.599  0.306-   6 1.89   9 2.00   2 2.70   2 2.70   1 2.77   1 2.77
  15  0.500  0.196  0.105-   8 1.89  10 1.99   5 2.75   5 2.75   1 2.77   1 2.77
  16  0.500  0.702  0.600-   7 1.92   6 1.97   2 2.78   2 2.78
  17  0.500  0.298  0.400-   8 1.92   6 1.97   3 2.78   3 2.78
  18  0.500  0.904  0.203-   8 1.92   9 1.98   2 2.71   2 2.71   5 2.76   5 2.76
  19  0.500  0.500  0.000-   9 1.96  10 1.96   1 2.66   4 2.66   1 2.66   4 2.66
  20  0.500  0.096  0.797-   7 1.92  10 1.98   3 2.71   3 2.71   5 2.76   5 2.76
  21  0.000  0.902  0.699-   7 1.95   7 1.95   3 2.75   5 2.75
  22  0.000  0.500  0.500-   6 1.95   6 1.95   2 2.74   3 2.74
  23  0.000  0.098  0.301-   8 1.95   8 1.95   2 2.75   5 2.75
  24  0.000  0.701  0.101-   9 1.95   9 1.95   2 2.65   1 2.67   4 2.67   5 2.74
  25  0.000  0.299  0.899-  10 1.95  10 1.95   3 2.65   4 2.67   1 2.67   5 2.74
 
  LATTYP: Found a simple monoclinic cell.
 ALAT       =    12.3288054873
 B/A-ratio  =     0.3159027603
 C/A-ratio  =     1.5819082858
 COS(beta)  =    -0.9491023176
  
  Lattice vectors:
  
 A1 = (   0.0000000000, -11.7015614409,   3.8823838797)
 A2 = (   3.8947036849,   0.0000000000,   0.0000000000)
 A3 = (   0.0000000000,  19.5030395101,   0.0013239511)


Analysis of symmetry for initial positions (statically):
=====================================================================
 Subroutine PRICEL returns:
 Original cell was already a primitive cell.
 

 Routine SETGRP: Setting up the symmetry group for a 
 simple monoclinic supercell.


 Subroutine GETGRP returns: Found  4 space group operations
 (whereof  4 operations were pure point group operations)
 out of a pool of  4 trial point group operations.


The static configuration has the point symmetry C_2h.


Analysis of symmetry for dynamics (positions and initial velocities):
=====================================================================
 Subroutine PRICEL returns:
 Original cell was already a primitive cell.
 

 Routine SETGRP: Setting up the symmetry group for a 
 simple monoclinic supercell.


 Subroutine GETGRP returns: Found  4 space group operations
 (whereof  4 operations were pure point group operations)
 out of a pool of  4 trial point group operations.


The dynamic configuration has the point symmetry C_2h.


Analysis of structural, dynamic, and magnetic symmetry:
=====================================================================
 Subroutine PRICEL returns:
 Original cell was already a primitive cell.
 

 Routine SETGRP: Setting up the symmetry group for a 
 simple monoclinic supercell.


 Subroutine GETGRP returns: Found  4 space group operations
 (whereof  4 operations were pure point group operations)
 out of a pool of  4 trial point group operations.


The magnetic configuration has the point symmetry C_2h.


 Subroutine INISYM returns: Found  4 space group operations
 (whereof  4 operations are pure point group operations),
 and found     1 'primitive' translations

 
 
 KPOINTS: Automatic mesh                          

Automatic generation of k-mesh.
 generate k-points for:    5    2    2
Space group operators:
 irot       det(A)        alpha          n_x          n_y          n_z        tau_x        tau_y        tau_z
    1     1.000000     0.000000     1.000000     0.000000     0.000000     0.000000     0.000000     0.000000
    2    -1.000000     0.000000     1.000000     0.000000     0.000000     0.000000     0.000000     0.000000
    3     1.000000   180.000000     1.000000     0.000000     0.000000     0.000000     0.000000     0.000000
    4    -1.000000   180.000000     1.000000     0.000000     0.000000     0.000000     0.000000     0.000000
 
 Subroutine IBZKPT returns following result:
 ===========================================
 
 Found     12 irreducible k-points:
 
 Following reciprocal coordinates:
            Coordinates               Weight
  0.000000  0.000000  0.000000      1.000000
  0.200000  0.000000  0.000000      2.000000
  0.400000  0.000000  0.000000      2.000000
  0.000000  0.500000  0.000000      1.000000
  0.200000  0.500000  0.000000      2.000000
  0.400000  0.500000  0.000000      2.000000
  0.000000  0.000000  0.500000      1.000000
  0.200000  0.000000  0.500000      2.000000
  0.400000  0.000000  0.500000      2.000000
  0.000000  0.500000  0.500000      1.000000
  0.200000  0.500000  0.500000      2.000000
  0.400000  0.500000  0.500000      2.000000
 
 Following cartesian coordinates:
            Coordinates               Weight
  0.000000  0.000000  0.000000      1.000000
 -0.051352  0.000000  0.000000      2.000000
 -0.102704  0.000000  0.000000      2.000000
  0.000000  0.051272  0.025749      1.000000
 -0.051352  0.051272  0.025749      2.000000
 -0.102704  0.051272  0.025749      2.000000
  0.000000  0.025641 -0.051506      1.000000
 -0.051352  0.025641 -0.051506      2.000000
 -0.102704  0.025641 -0.051506      2.000000
  0.000000  0.076913 -0.025757      1.000000
 -0.051352  0.076913 -0.025757      2.000000
 -0.102704  0.076913 -0.025757      2.000000
 
 TETIRR: Found     60 inequivalent tetrahedra from      120


--------------------------------------------------------------------------------------------------------




 Dimension of arrays:
   k-points           NKPTS =     12   k-points in BZ     NKDIM =     12   number of bands    NBANDS=    120
   number of dos      NEDOS =    301   number of ions     NIONS =     25
   non local maximal  LDIM  =      8   non local SUM 2l+1 LMDIM =     32
   total plane-waves  NPLWV = 147000
   max r-space proj   IRMAX =   9044   max aug-charges    IRDMAX=  26238
   dimension x,y,z NGX =    30 NGY =   70 NGZ =   70
   dimension x,y,z NGXF=    60 NGYF=  140 NGZF=  140
   support grid    NGXF=    60 NGYF=  140 NGZF=  140
   ions per type =               5   3   2  15
   NGX,Y,Z   is equivalent  to a cutoff of  12.81, 13.35, 13.39 a.u.
   NGXF,Y,Z  is equivalent  to a cutoff of  25.61, 26.71, 26.78 a.u.

 SYSTEM =  final                                   
 POSCAR =  SCEL5_1_5_1_2_0_0/1                     

 Startparameter for this run:
   NWRITE =      2    write-flag & timer
   PREC   = accura    normal or accurate (medium, high low for compatibility)
   ISTART =      0    job   : 0-new  1-cont  2-samecut
   ICHARG =      1    charge: 1-file 2-atom 10-const
   ISPIN  =      2    spin polarized calculation?
   LNONCOLLINEAR =      F non collinear calculations
   LSORBIT =      F    spin-orbit coupling
   INIWAV =      1    electr: 0-lowe 1-rand  2-diag
   LASPH  =      F    aspherical Exc in radial PAW
   METAGGA=      F    non-selfconsistent MetaGGA calc.

 Electronic Relaxation 1
   ENCUT  =  520.0 eV  38.22 Ry    6.18 a.u.   7.24 16.20 16.16*2*pi/ulx,y,z
   ENINI  =  520.0     initial cutoff
   ENAUG  =  605.4 eV  augmentation charge cutoff
   NELM   =    100;   NELMIN=  2; NELMDL= -5     # of ELM steps 
   EDIFF  = 0.1E-02   stopping-criterion for ELM
   LREAL  =      T    real-space projection
   NLSPLINE    = F    spline interpolate recip. space projectors
   LCOMPAT=      F    compatible to vasp.4.4
   GGA_COMPAT  = T    GGA compatible to vasp.4.4-vasp.4.6
   LMAXPAW     = -100 max onsite density
   LMAXMIX     =    6 max onsite mixed and CHGCAR
   VOSKOWN=      0    Vosko Wilk Nusair interpolation
   ROPT   =   -0.00025  -0.00025  -0.00025  -0.00025
 Ionic relaxation
   EDIFFG = 0.1E-01   stopping-criterion for IOM
   NSW    =      0    number of steps for IOM
   NBLOCK =      1;   KBLOCK =      1    inner block; outer block 
   IBRION =     -1    ionic relax: 0-MD 1-quasi-New 2-CG
   NFREE  =      0    steps in history (QN), initial steepest desc. (CG)
   ISIF   =      2    stress and relaxation
   IWAVPR =     10    prediction:  0-non 1-charg 2-wave 3-comb
   ISYM   =      2    0-nonsym 1-usesym 2-fastsym
   LCORR  =      T    Harris-Foulkes like correction to forces

   POTIM  = 0.5000    time-step for ionic-motion
   TEIN   =    0.0    initial temperature
   TEBEG  =    0.0;   TEEND  =   0.0 temperature during run
   SMASS  =  -3.00    Nose mass-parameter (am)
   estimated Nose-frequenzy (Omega)   =  0.10E-29 period in steps =****** mass=  -0.347E-27a.u.
   SCALEE = 1.0000    scale energy and forces
   NPACO  =    256;   APACO  = 16.0  distance and # of slots for P.C.
   PSTRESS=    0.0 pullay stress

  Mass of Ions in am
   POMASS = 138.90 54.94 58.69 16.00
  Ionic Valenz
   ZVAL   =  11.00  7.00 10.00  6.00
  Atomic Wigner-Seitz radii
   RWIGS  =  -1.00 -1.00 -1.00 -1.00
  virtual crystal weights 
   VCA    =   1.00  1.00  1.00  1.00
   NELECT =     186.0000    total number of electrons
   NUPDOWN=      -1.0000    fix difference up-down

 DOS related values:
   EMIN   =  10.00;   EMAX   =-10.00  energy-range for DOS
   EFERMI =   0.00
   ISMEAR =    -5;   SIGMA  =   0.05  broadening in eV -4-tet -1-fermi 0-gaus

 Electronic relaxation 2 (details)
   IALGO  =     68    algorithm
   LDIAG  =      T    sub-space diagonalisation (order eigenvalues)
   LSUBROT=      F    optimize rotation matrix (better conditioning)
   TURBO    =      0    0=normal 1=particle mesh
   IRESTART =      0    0=no restart 2=restart with 2 vectors
   NREBOOT  =      0    no. of reboots
   NMIN     =      0    reboot dimension
   EREF     =   0.00    reference energy to select bands
   IMIX   =      4    mixing-type and parameters
     AMIX     =   0.40;   BMIX     =  1.00
     AMIX_MAG =   1.60;   BMIX_MAG =  1.00
     AMIN     =   0.10
     WC   =   100.;   INIMIX=   1;  MIXPRE=   1;  MAXMIX= -45

 Intra band minimization:
   WEIMIN = 0.0000     energy-eigenvalue tresh-hold
   EBREAK =  0.21E-05  absolut break condition
   DEPER  =   0.30     relativ break condition  

   TIME   =   0.40     timestep for ELM

  volume/ion in A,a.u.               =      11.80        79.62
  Fermi-wavevector in a.u.,A,eV,Ry     =   1.403862  2.652915 26.814755  1.970829
  Thomas-Fermi vector in A             =   2.526482
 
 Write flags
   LWAVE        =      F    write WAVECAR
   LDOWNSAMPLE  =      F    k-point downsampling of WAVECAR
   LCHARG       =      T    write CHGCAR
   LVTOT        =      F    write LOCPOT, total local potential
   LVHAR        =      F    write LOCPOT, Hartree potential only
   LELF         =      F    write electronic localiz. function (ELF)
   LORBIT       =     11    0 simple, 1 ext, 2 COOP (PROOUT), +10 PAW based schemes


 Dipole corrections
   LMONO  =      F    monopole corrections only (constant potential shift)
   LDIPOL =      F    correct potential (dipole corrections)
   IDIPOL =      0    1-x, 2-y, 3-z, 4-all directions 
   EPSILON=  1.0000000 bulk dielectric constant

 LDA+U is selected, type is set to LDAUTYPE =  2
   angular momentum for each species LDAUL =     0    2    2    0
   U (eV)           for each species LDAUU =   0.0  3.9  6.2  0.0
   J (eV)           for each species LDAUJ =   0.0  0.0  0.0  0.0
 Exchange correlation treatment:
   GGA     =    --    GGA type
   LEXCH   =     8    internal setting for exchange type
   VOSKOWN=      0    Vosko Wilk Nusair interpolation
   LHFCALC =     F    Hartree Fock is set to
   LHFONE  =     F    Hartree Fock one center treatment
   AEXX    =    0.0000 exact exchange contribution

 Linear response parameters
   LEPSILON=     F    determine dielectric tensor
   LRPA    =     F    only Hartree local field effects (RPA)
   LNABLA  =     F    use nabla operator in PAW spheres
   LVEL    =     F    velocity operator in full k-point grid
   LINTERFAST=   F  fast interpolation
   KINTER  =     0    interpolate to denser k-point grid
   CSHIFT  =0.1000    complex shift for real part using Kramers Kronig
   OMEGAMAX=  -1.0    maximum frequency
   DEG_THRESHOLD= 0.2000000E-02 threshold for treating states as degnerate
   RTIME   =   -0.100 relaxation time in fs
  (WPLASMAI=    0.000 imaginary part of plasma frequency in eV, 0.658/RTIME)
   DFIELD  = 0.0000000 0.0000000 0.0000000 field for delta impulse in time
 
 Orbital magnetization related:
   ORBITALMAG=     F  switch on orbital magnetization
   LCHIMAG   =     F  perturbation theory with respect to B field
   DQ        =  0.001000  dq finite difference perturbation B field
   LLRAUG    =     F  two centre corrections for induced B field



--------------------------------------------------------------------------------------------------------


 Static calculation
 charge density and potential will be updated during run
 spin polarized calculation
 RMM-DIIS sequential band-by-band and
  variant of blocked Davidson during initial phase
 perform sub-space diagonalisation
    before iterative eigenvector-optimisation
 modified Broyden-mixing scheme, WC =      100.0
 initial mixing is a Kerker type mixing with AMIX =  0.4000 and BMIX =      1.0000
 Hartree-type preconditioning will be used
 using additional bands           27
 real space projection scheme for non local part
 use partial core corrections
 calculate Harris-corrections to forces 
   (improved forces if not selfconsistent)
 use gradient corrections 
 use of overlap-Matrix (Vanderbilt PP)
 Fermi weights with tetrahedron method with Bloechl corrections


--------------------------------------------------------------------------------------------------------


  energy-cutoff  :      520.00
  volume of cell :      294.96
      direct lattice vectors                 reciprocal lattice vectors
    -3.894703685  0.000000000  0.000000000    -0.256758943  0.000000000  0.000000000
     0.000000000  7.801478069  3.883707831     0.000000000  0.102544622  0.051497277
     0.000000000  3.900083372 -7.766091711     0.000000000  0.051281052 -0.103011869

  length of vectors
     3.894703685  8.714714372  8.690387262     0.256758943  0.114749157  0.115070376


 
 k-points in units of 2pi/SCALE and weight: Automatic mesh                          
   0.00000000  0.00000000  0.00000000       0.050
  -0.05135179  0.00000000  0.00000000       0.100
  -0.10270358  0.00000000  0.00000000       0.100
   0.00000000  0.05127231  0.02574864       0.050
  -0.05135179  0.05127231  0.02574864       0.100
  -0.10270358  0.05127231  0.02574864       0.100
   0.00000000  0.02564053 -0.05150593       0.050
  -0.05135179  0.02564053 -0.05150593       0.100
  -0.10270358  0.02564053 -0.05150593       0.100
   0.00000000  0.07691284 -0.02575730       0.050
  -0.05135179  0.07691284 -0.02575730       0.100
  -0.10270358  0.07691284 -0.02575730       0.100
 
 k-points in reciprocal lattice and weights: Automatic mesh                          
   0.00000000  0.00000000  0.00000000       0.050
   0.20000000  0.00000000  0.00000000       0.100
   0.40000000  0.00000000  0.00000000       0.100
   0.00000000  0.50000000  0.00000000       0.050
   0.20000000  0.50000000  0.00000000       0.100
   0.40000000  0.50000000  0.00000000       0.100
   0.00000000  0.00000000  0.50000000       0.050
   0.20000000  0.00000000  0.50000000       0.100
   0.40000000  0.00000000  0.50000000       0.100
   0.00000000  0.50000000  0.50000000       0.050
   0.20000000  0.50000000  0.50000000       0.100
   0.40000000  0.50000000  0.50000000       0.100
 
 position of ions in fractional coordinates (direct lattice) 
   0.00000000  0.40647631  0.18661190
   0.00000000  0.79537232  0.39059482
   0.00000000  0.20462768  0.60940518
   0.00000000  0.59352369  0.81338810
   0.00000000  0.00000000  0.00000000
   0.50000000  0.50000000  0.50000000
   0.50000000  0.89928111  0.69934589
   0.50000000  0.10071889  0.30065411
   0.50000000  0.70166597  0.10010522
   0.50000000  0.29833403  0.89989478
   0.50000000  0.80396362  0.89452572
   0.50000000  0.40075408  0.69414064
   0.50000000  0.00000000  0.50000000
   0.50000000  0.59924592  0.30585936
   0.50000000  0.19603638  0.10547428
   0.50000000  0.70240390  0.59968836
   0.50000000  0.29759610  0.40031164
   0.50000000  0.90360697  0.20296980
   0.50000000  0.50000000  0.00000000
   0.50000000  0.09639303  0.79703020
   0.00000000  0.90217531  0.69940794
   0.00000000  0.50000000  0.50000000
   0.00000000  0.09782469  0.30059206
   0.00000000  0.70125309  0.10115996
   0.00000000  0.29874691  0.89884004
 
 position of ions in cartesian coordinates  (Angst):
   0.00000000  3.89891797  0.12939008
   0.00000000  7.72843206  0.05559854
   0.00000000  3.97312938 -3.93798242
   0.00000000  7.80264347 -4.01177396
   0.00000000  0.00000000  0.00000000
  -1.94735184  5.85078072 -1.94119194
  -1.94735184  9.74322909 -1.93863921
  -1.94735184  1.95833235 -1.94374467
  -1.94735184  5.86445037  1.94763931
  -1.94735184  5.83711107 -5.83002319
  -1.94735184  9.76082942 -3.82460898
  -1.94735184  5.83368049 -3.83434812
  -1.94735184  1.95004169 -3.88304586
  -1.94735184  5.86788095 -0.04803576
  -1.94735184  1.94073202 -0.05777490
  -1.94735184  7.81862323 -1.92930323
  -1.94735184  3.88293821 -1.95308065
  -1.94735184  7.84106910  1.93306336
  -1.94735184  3.90073903  1.94185392
  -1.94735184  3.86049234 -5.81544724
   0.00000000  9.76605015 -1.92788087
   0.00000000  5.85078072 -1.94119194
   0.00000000  1.93551129 -1.95450301
   0.00000000  5.86534291  1.93784457
   0.00000000  5.83621853 -5.82022845
 


--------------------------------------------------------------------------------------------------------


 k-point  1 :   0.0000 0.0000 0.0000  plane waves:    7937
 k-point  2 :   0.2000 0.0000 0.0000  plane waves:    7943
 k-point  3 :   0.4000 0.0000 0.0000  plane waves:    7942
 k-point  4 :   0.0000 0.5000 0.0000  plane waves:    7976
 k-point  5 :   0.2000 0.5000 0.0000  plane waves:    7938
 k-point  6 :   0.4000 0.5000 0.0000  plane waves:    7952
 k-point  7 :   0.0000 0.0000 0.5000  plane waves:    7982
 k-point  8 :   0.2000 0.0000 0.5000  plane waves:    7948
 k-point  9 :   0.4000 0.0000 0.5000  plane waves:    7938
 k-point 10 :   0.0000 0.5000 0.5000  plane waves:    7944
 k-point 11 :   0.2000 0.5000 0.5000  plane waves:    7932
 k-point 12 :   0.4000 0.5000 0.5000  plane waves:    7960

 maximum and minimum number of plane-waves per node :       814      776

 maximum number of plane-waves:      7982
 maximum index in each direction: 
   IXMAX=    7   IYMAX=   16   IZMAX=   16
   IXMIN=   -7   IYMIN=  -16   IZMIN=  -16


 real space projection operators:
  total allocation   :      18535.70 KBytes
  max/ min on nodes  :       1928.28       1812.78


 parallel 3D FFT for wavefunctions:
    minimum data exchange during FFTs selected (reduces bandwidth)
 parallel 3D FFT for charge:
    minimum data exchange during FFTs selected (reduces bandwidth)


 total amount of memory used by VASP MPI-rank0    65530. kBytes
=======================================================================

   base      :      30000. kBytes
   nonlr-proj:       6217. kBytes
   fftplans  :       2449. kBytes
   grid      :       6894. kBytes
   one-center:        294. kBytes
   wavefun   :      19676. kBytes
 
     INWAV:  cpu time    0.0000: real time    0.0000
 Broyden mixing: mesh for mixing (old mesh)
   NGX = 15   NGY = 33   NGZ = 33
  (NGX  = 60   NGY  =140   NGZ  =140)
  gives a total of  16335 points

 initial charge density was supplied:
 charge density of overlapping atoms calculated
 number of electron     186.0000000 magnetization      18.0000000
 keeping initial charge density in first step


--------------------------------------------------------------------------------------------------------


 Maximum index for non-local projection operator          899
 Maximum index for augmentation-charges         1081 (set IRDMAX)


--------------------------------------------------------------------------------------------------------


 First call to EWALD:  gamma=   0.266
 Maximum number of real-space cells 4x 2x 2
 Maximum number of reciprocal cells 2x 3x 3

    FEWALD:  cpu time    0.0016: real time    0.0016


--------------------------------------- Iteration      1(   1)  ---------------------------------------


    POTLOK:  cpu time    0.0714: real time    0.0735
    SETDIJ:  cpu time    0.0129: real time    0.0130
atom =   1  type =  1  l = 0
 
 onsite density matrix
 
spin component  1
 
  1.0989
 
spin component  2
 
  1.0989
 
 occupancies and eigenvectors
 
  o =  1.0989  v =  1.0000  0.0000      0.0000  0.0000
  o =  1.0989  v =  0.0000  1.0000      0.0000  0.0000
atom =   2  type =  1  l = 0
 
 onsite density matrix
 
spin component  1
 
  1.0989
 
spin component  2
 
  1.0989
 
 occupancies and eigenvectors
 
  o =  1.0989  v =  1.0000  0.0000      0.0000  0.0000
  o =  1.0989  v =  0.0000  1.0000      0.0000  0.0000
atom =   3  type =  1  l = 0
 
 onsite density matrix
 
spin component  1
 
  1.0989
 
spin component  2
 
  1.0989
 
 occupancies and eigenvectors
 
  o =  1.0989  v =  1.0000  0.0000      0.0000  0.0000
  o =  1.0989  v =  0.0000  1.0000      0.0000  0.0000
atom =   4  type =  1  l = 0
 
 onsite density matrix
 
spin component  1
 
  1.0989
 
spin component  2
 
  1.0989
 
 occupancies and eigenvectors
 
  o =  1.0989  v =  1.0000  0.0000      0.0000  0.0000
  o =  1.0989  v =  0.0000  1.0000      0.0000  0.0000
atom =   5  type =  1  l = 0
 
 onsite density matrix
 
spin component  1
 
  1.0989
 
spin component  2
 
  1.0989
 
 occupancies and eigenvectors
 
  o =  1.0989  v =  1.0000  0.0000      0.0000  0.0000
  o =  1.0989  v =  0.0000  1.0000      0.0000  0.0000
atom =   6  type =  2  l = 2
 
 onsite density matrix
 
spin component  1
 
  0.8272  0.0000  0.0000  0.0000  0.0000
  0.0000  0.8272  0.0000  0.0000  0.0000
  0.0000  0.0000  0.8272  0.0000  0.0000
  0.0000  0.0000  0.0000  0.8272  0.0000
  0.0000  0.0000  0.0000  0.0000  0.8272
 
spin component  2
 
  0.2256  0.0000  0.0000  0.0000  0.0000
  0.0000  0.2256  0.0000  0.0000  0.0000
  0.0000  0.0000  0.2256  0.0000  0.0000
  0.0000  0.0000  0.0000  0.2256  0.0000
  0.0000  0.0000  0.0000  0.0000  0.2256
 
 occupancies and eigenvectors
 
  o =  0.2256  v =  0.0000  0.0000  0.0000  0.0000  0.0000  0.0000  0.0000  1.0000  0.0000  0.0000      0.0000  0.0000  0.0000  0.0000  0.0000  0.0000  0.0000  0.0000  0.0000  0.0000
  o =  0.2256  v =  0.0000  0.0000  0.0000  0.0000  0.0000  1.0000  0.0000  0.0000  0.0000  0.0000      0.0000  0.0000  0.0000  0.0000  0.0000  0.0000  0.0000  0.0000  0.0000  0.0000
  o =  0.2256  v =  0.0000  0.0000  0.0000  0.0000  0.0000  0.0000  1.0000  0.0000  0.0000  0.0000      0.0000  0.0000  0.0000  0.0000  0.0000  0.0000  0.0000  0.0000  0.0000  0.0000
  o =  0.2256  v =  0.0000  0.0000  0.0000  0.0000  0.0000  0.0000  0.0000  0.0000  1.0000  0.0000      0.0000  0.0000  0.0000  0.0000  0.0000  0.0000  0.0000  0.0000  0.0000  0.0000
  o =  0.2256  v =  0.0000  0.0000  0.0000  0.0000  0.0000  0.0000  0.0000  0.0000  0.0000  1.0000      0.0000  0.0000  0.0000  0.0000  0.0000  0.0000  0.0000  0.0000  0.0000  0.0000
  o =  0.8272  v =  0.0000  1.0000  0.0000  0.0000  0.0000  0.0000  0.0000  0.0000  0.0000  0.0000      0.0000  0.0000  0.0000  0.0000  0.0000  0.0000  0.0000  0.0000  0.0000  0.0000
  o =  0.8272  v =  0.0000  0.0000  1.0000  0.0000  0.0000  0.0000  0.0000  0.0000  0.0000  0.0000      0.0000  0.0000  0.0000  0.0000  0.0000  0.0000  0.0000  0.0000  0.0000  0.0000
  o =  0.8272  v =  1.0000  0.0000  0.0000  0.0000  0.0000  0.0000  0.0000  0.0000  0.0000  0.0000      0.0000  0.0000  0.0000  0.0000  0.0000  0.0000  0.0000  0.0000  0.0000  0.0000
  o =  0.8272  v =  0.0000  0.0000  0.0000  1.0000  0.0000  0.0000  0.0000  0.0000  0.0000  0.0000      0.0000  0.0000  0.0000  0.0000  0.0000  0.0000  0.0000  0.0000  0.0000  0.0000
  o =  0.8272  v =  0.0000  0.0000  0.0000  0.0000  1.0000  0.0000  0.0000  0.0000  0.0000  0.0000      0.0000  0.0000  0.0000  0.0000  0.0000  0.0000  0.0000  0.0000  0.0000  0.0000
atom =   7  type =  2  l = 2
 
 onsite density matrix
 
spin component  1
 
  0.8272  0.0000  0.0000  0.0000  0.0000
  0.0000  0.8272  0.0000  0.0000  0.0000
  0.0000  0.0000  0.8272  0.0000  0.0000
  0.0000  0.0000  0.0000  0.8272  0.0000
  0.0000  0.0000  0.0000  0.0000  0.8272
 
spin component  2
 
  0.2256  0.0000  0.0000  0.0000  0.0000
  0.0000  0.2256  0.0000  0.0000  0.0000
  0.0000  0.0000  0.2256  0.0000  0.0000
  0.0000  0.0000  0.0000  0.2256  0.0000
  0.0000  0.0000  0.0000  0.0000  0.2256
 
 occupancies and eigenvectors
 
  o =  0.2256  v =  0.0000  0.0000  0.0000  0.0000  0.0000  0.0000  0.0000  1.0000  0.0000  0.0000      0.0000  0.0000  0.0000  0.0000  0.0000  0.0000  0.0000  0.0000  0.0000  0.0000
  o =  0.2256  v =  0.0000  0.0000  0.0000  0.0000  0.0000  1.0000  0.0000  0.0000  0.0000  0.0000      0.0000  0.0000  0.0000  0.0000  0.0000  0.0000  0.0000  0.0000  0.0000  0.0000
  o =  0.2256  v =  0.0000  0.0000  0.0000  0.0000  0.0000  0.0000  1.0000  0.0000  0.0000  0.0000      0.0000  0.0000  0.0000  0.0000  0.0000  0.0000  0.0000  0.0000  0.0000  0.0000
  o =  0.2256  v =  0.0000  0.0000  0.0000  0.0000  0.0000  0.0000  0.0000  0.0000  1.0000  0.0000      0.0000  0.0000  0.0000  0.0000  0.0000  0.0000  0.0000  0.0000  0.0000  0.0000
  o =  0.2256  v =  0.0000  0.0000  0.0000  0.0000  0.0000  0.0000  0.0000  0.0000  0.0000  1.0000      0.0000  0.0000  0.0000  0.0000  0.0000  0.0000  0.0000  0.0000  0.0000  0.0000
  o =  0.8272  v =  0.0000  1.0000  0.0000  0.0000  0.0000  0.0000  0.0000  0.0000  0.0000  0.0000      0.0000  0.0000  0.0000  0.0000  0.0000  0.0000  0.0000  0.0000  0.0000  0.0000
  o =  0.8272  v =  0.0000  0.0000  1.0000  0.0000  0.0000  0.0000  0.0000  0.0000  0.0000  0.0000      0.0000  0.0000  0.0000  0.0000  0.0000  0.0000  0.0000  0.0000  0.0000  0.0000
  o =  0.8272  v =  1.0000  0.0000  0.0000  0.0000  0.0000  0.0000  0.0000  0.0000  0.0000  0.0000      0.0000  0.0000  0.0000  0.0000  0.0000  0.0000  0.0000  0.0000  0.0000  0.0000
  o =  0.8272  v =  0.0000  0.0000  0.0000  1.0000  0.0000  0.0000  0.0000  0.0000  0.0000  0.0000      0.0000  0.0000  0.0000  0.0000  0.0000  0.0000  0.0000  0.0000  0.0000  0.0000
  o =  0.8272  v =  0.0000  0.0000  0.0000  0.0000  1.0000  0.0000  0.0000  0.0000  0.0000  0.0000      0.0000  0.0000  0.0000  0.0000  0.0000  0.0000  0.0000  0.0000  0.0000  0.0000
atom =   8  type =  2  l = 2
 
 onsite density matrix
 
spin component  1
 
  0.8272  0.0000  0.0000  0.0000  0.0000
  0.0000  0.8272  0.0000  0.0000  0.0000
  0.0000  0.0000  0.8272  0.0000  0.0000
  0.0000  0.0000  0.0000  0.8272  0.0000
  0.0000  0.0000  0.0000  0.0000  0.8272
 
spin component  2
 
  0.2256  0.0000  0.0000  0.0000  0.0000
  0.0000  0.2256  0.0000  0.0000  0.0000
  0.0000  0.0000  0.2256  0.0000  0.0000
  0.0000  0.0000  0.0000  0.2256  0.0000
  0.0000  0.0000  0.0000  0.0000  0.2256
 
 occupancies and eigenvectors
 
  o =  0.2256  v =  0.0000  0.0000  0.0000  0.0000  0.0000  0.0000  0.0000  1.0000  0.0000  0.0000      0.0000  0.0000  0.0000  0.0000  0.0000  0.0000  0.0000  0.0000  0.0000  0.0000
  o =  0.2256  v =  0.0000  0.0000  0.0000  0.0000  0.0000  1.0000  0.0000  0.0000  0.0000  0.0000      0.0000  0.0000  0.0000  0.0000  0.0000  0.0000  0.0000  0.0000  0.0000  0.0000
  o =  0.2256  v =  0.0000  0.0000  0.0000  0.0000  0.0000  0.0000  1.0000  0.0000  0.0000  0.0000      0.0000  0.0000  0.0000  0.0000  0.0000  0.0000  0.0000  0.0000  0.0000  0.0000
  o =  0.2256  v =  0.0000  0.0000  0.0000  0.0000  0.0000  0.0000  0.0000  0.0000  1.0000  0.0000      0.0000  0.0000  0.0000  0.0000  0.0000  0.0000  0.0000  0.0000  0.0000  0.0000
  o =  0.2256  v =  0.0000  0.0000  0.0000  0.0000  0.0000  0.0000  0.0000  0.0000  0.0000  1.0000      0.0000  0.0000  0.0000  0.0000  0.0000  0.0000  0.0000  0.0000  0.0000  0.0000
  o =  0.8272  v =  0.0000  1.0000  0.0000  0.0000  0.0000  0.0000  0.0000  0.0000  0.0000  0.0000      0.0000  0.0000  0.0000  0.0000  0.0000  0.0000  0.0000  0.0000  0.0000  0.0000
  o =  0.8272  v =  0.0000  0.0000  1.0000  0.0000  0.0000  0.0000  0.0000  0.0000  0.0000  0.0000      0.0000  0.0000  0.0000  0.0000  0.0000  0.0000  0.0000  0.0000  0.0000  0.0000
  o =  0.8272  v =  1.0000  0.0000  0.0000  0.0000  0.0000  0.0000  0.0000  0.0000  0.0000  0.0000      0.0000  0.0000  0.0000  0.0000  0.0000  0.0000  0.0000  0.0000  0.0000  0.0000
  o =  0.8272  v =  0.0000  0.0000  0.0000  1.0000  0.0000  0.0000  0.0000  0.0000  0.0000  0.0000      0.0000  0.0000  0.0000  0.0000  0.0000  0.0000  0.0000  0.0000  0.0000  0.0000
  o =  0.8272  v =  0.0000  0.0000  0.0000  0.0000  1.0000  0.0000  0.0000  0.0000  0.0000  0.0000      0.0000  0.0000  0.0000  0.0000  0.0000  0.0000  0.0000  0.0000  0.0000  0.0000
atom =   9  type =  3  l = 2
 
 onsite density matrix
 
spin component  1
 
  1.1008  0.0000  0.0000  0.0000  0.0000
  0.0000  1.1008  0.0000  0.0000  0.0000
  0.0000  0.0000  1.1008  0.0000  0.0000
  0.0000  0.0000  0.0000  1.1008  0.0000
  0.0000  0.0000  0.0000  0.0000  1.1008
 
spin component  2
 
  0.5927  0.0000  0.0000  0.0000  0.0000
  0.0000  0.5927  0.0000  0.0000  0.0000
  0.0000  0.0000  0.5927  0.0000  0.0000
  0.0000  0.0000  0.0000  0.5927  0.0000
  0.0000  0.0000  0.0000  0.0000  0.5927
 
 occupancies and eigenvectors
 
  o =  0.5927  v =  0.0000  0.0000  0.0000  0.0000  0.0000  1.0000  0.0000  0.0000  0.0000  0.0000      0.0000  0.0000  0.0000  0.0000  0.0000  0.0000  0.0000  0.0000  0.0000  0.0000
  o =  0.5927  v =  0.0000  0.0000  0.0000  0.0000  0.0000  0.0000  1.0000  0.0000  0.0000  0.0000      0.0000  0.0000  0.0000  0.0000  0.0000  0.0000  0.0000  0.0000  0.0000  0.0000
  o =  0.5927  v =  0.0000  0.0000  0.0000  0.0000  0.0000  0.0000  0.0000  1.0000  0.0000  0.0000      0.0000  0.0000  0.0000  0.0000  0.0000  0.0000  0.0000  0.0000  0.0000  0.0000
  o =  0.5927  v =  0.0000  0.0000  0.0000  0.0000  0.0000  0.0000  0.0000  0.0000  1.0000  0.0000      0.0000  0.0000  0.0000  0.0000  0.0000  0.0000  0.0000  0.0000  0.0000  0.0000
  o =  0.5927  v =  0.0000  0.0000  0.0000  0.0000  0.0000  0.0000  0.0000  0.0000  0.0000  1.0000      0.0000  0.0000  0.0000  0.0000  0.0000  0.0000  0.0000  0.0000  0.0000  0.0000
  o =  1.1008  v =  1.0000  0.0000  0.0000  0.0000  0.0000  0.0000  0.0000  0.0000  0.0000  0.0000      0.0000  0.0000  0.0000  0.0000  0.0000  0.0000  0.0000  0.0000  0.0000  0.0000
  o =  1.1008  v =  0.0000  1.0000  0.0000  0.0000  0.0000  0.0000  0.0000  0.0000  0.0000  0.0000      0.0000  0.0000  0.0000  0.0000  0.0000  0.0000  0.0000  0.0000  0.0000  0.0000
  o =  1.1008  v =  0.0000  0.0000  1.0000  0.0000  0.0000  0.0000  0.0000  0.0000  0.0000  0.0000      0.0000  0.0000  0.0000  0.0000  0.0000  0.0000  0.0000  0.0000  0.0000  0.0000
  o =  1.1008  v =  0.0000  0.0000  0.0000  1.0000  0.0000  0.0000  0.0000  0.0000  0.0000  0.0000      0.0000  0.0000  0.0000  0.0000  0.0000  0.0000  0.0000  0.0000  0.0000  0.0000
  o =  1.1008  v =  0.0000  0.0000  0.0000  0.0000  1.0000  0.0000  0.0000  0.0000  0.0000  0.0000      0.0000  0.0000  0.0000  0.0000  0.0000  0.0000  0.0000  0.0000  0.0000  0.0000
atom =  10  type =  3  l = 2
 
 onsite density matrix
 
spin component  1
 
  1.1008  0.0000  0.0000  0.0000  0.0000
  0.0000  1.1008  0.0000  0.0000  0.0000
  0.0000  0.0000  1.1008  0.0000  0.0000
  0.0000  0.0000  0.0000  1.1008  0.0000
  0.0000  0.0000  0.0000  0.0000  1.1008
 
spin component  2
 
  0.5927  0.0000  0.0000  0.0000  0.0000
  0.0000  0.5927  0.0000  0.0000  0.0000
  0.0000  0.0000  0.5927  0.0000  0.0000
  0.0000  0.0000  0.0000  0.5927  0.0000
  0.0000  0.0000  0.0000  0.0000  0.5927
 
 occupancies and eigenvectors
 
  o =  0.5927  v =  0.0000  0.0000  0.0000  0.0000  0.0000  1.0000  0.0000  0.0000  0.0000  0.0000      0.0000  0.0000  0.0000  0.0000  0.0000  0.0000  0.0000  0.0000  0.0000  0.0000
  o =  0.5927  v =  0.0000  0.0000  0.0000  0.0000  0.0000  0.0000  1.0000  0.0000  0.0000  0.0000      0.0000  0.0000  0.0000  0.0000  0.0000  0.0000  0.0000  0.0000  0.0000  0.0000
  o =  0.5927  v =  0.0000  0.0000  0.0000  0.0000  0.0000  0.0000  0.0000  1.0000  0.0000  0.0000      0.0000  0.0000  0.0000  0.0000  0.0000  0.0000  0.0000  0.0000  0.0000  0.0000
  o =  0.5927  v =  0.0000  0.0000  0.0000  0.0000  0.0000  0.0000  0.0000  0.0000  1.0000  0.0000      0.0000  0.0000  0.0000  0.0000  0.0000  0.0000  0.0000  0.0000  0.0000  0.0000
  o =  0.5927  v =  0.0000  0.0000  0.0000  0.0000  0.0000  0.0000  0.0000  0.0000  0.0000  1.0000      0.0000  0.0000  0.0000  0.0000  0.0000  0.0000  0.0000  0.0000  0.0000  0.0000
  o =  1.1008  v =  1.0000  0.0000  0.0000  0.0000  0.0000  0.0000  0.0000  0.0000  0.0000  0.0000      0.0000  0.0000  0.0000  0.0000  0.0000  0.0000  0.0000  0.0000  0.0000  0.0000
  o =  1.1008  v =  0.0000  1.0000  0.0000  0.0000  0.0000  0.0000  0.0000  0.0000  0.0000  0.0000      0.0000  0.0000  0.0000  0.0000  0.0000  0.0000  0.0000  0.0000  0.0000  0.0000
  o =  1.1008  v =  0.0000  0.0000  1.0000  0.0000  0.0000  0.0000  0.0000  0.0000  0.0000  0.0000      0.0000  0.0000  0.0000  0.0000  0.0000  0.0000  0.0000  0.0000  0.0000  0.0000
  o =  1.1008  v =  0.0000  0.0000  0.0000  1.0000  0.0000  0.0000  0.0000  0.0000  0.0000  0.0000      0.0000  0.0000  0.0000  0.0000  0.0000  0.0000  0.0000  0.0000  0.0000  0.0000
  o =  1.1008  v =  0.0000  0.0000  0.0000  0.0000  1.0000  0.0000  0.0000  0.0000  0.0000  0.0000      0.0000  0.0000  0.0000  0.0000  0.0000  0.0000  0.0000  0.0000  0.0000  0.0000
atom =  11  type =  4  l = 0
 
 onsite density matrix
 
spin component  1
 
  0.8190
 
spin component  2
 
  0.8190
 
 occupancies and eigenvectors
 
  o =  0.8190  v =  1.0000  0.0000      0.0000  0.0000
  o =  0.8190  v =  0.0000  1.0000      0.0000  0.0000
atom =  12  type =  4  l = 0
 
 onsite density matrix
 
spin component  1
 
  0.8190
 
spin component  2
 
  0.8190
 
 occupancies and eigenvectors
 
  o =  0.8190  v =  1.0000  0.0000      0.0000  0.0000
  o =  0.8190  v =  0.0000  1.0000      0.0000  0.0000
atom =  13  type =  4  l = 0
 
 onsite density matrix
 
spin component  1
 
  0.8190
 
spin component  2
 
  0.8190
 
 occupancies and eigenvectors
 
  o =  0.8190  v =  1.0000  0.0000      0.0000  0.0000
  o =  0.8190  v =  0.0000  1.0000      0.0000  0.0000
atom =  14  type =  4  l = 0
 
 onsite density matrix
 
spin component  1
 
  0.8190
 
spin component  2
 
  0.8190
 
 occupancies and eigenvectors
 
  o =  0.8190  v =  1.0000  0.0000      0.0000  0.0000
  o =  0.8190  v =  0.0000  1.0000      0.0000  0.0000
atom =  15  type =  4  l = 0
 
 onsite density matrix
 
spin component  1
 
  0.8190
 
spin component  2
 
  0.8190
 
 occupancies and eigenvectors
 
  o =  0.8190  v =  1.0000  0.0000      0.0000  0.0000
  o =  0.8190  v =  0.0000  1.0000      0.0000  0.0000
atom =  16  type =  4  l = 0
 
 onsite density matrix
 
spin component  1
 
  0.8190
 
spin component  2
 
  0.8190
 
 occupancies and eigenvectors
 
  o =  0.8190  v =  1.0000  0.0000      0.0000  0.0000
  o =  0.8190  v =  0.0000  1.0000      0.0000  0.0000
atom =  17  type =  4  l = 0
 
 onsite density matrix
 
spin component  1
 
  0.8190
 
spin component  2
 
  0.8190
 
 occupancies and eigenvectors
 
  o =  0.8190  v =  1.0000  0.0000      0.0000  0.0000
  o =  0.8190  v =  0.0000  1.0000      0.0000  0.0000
atom =  18  type =  4  l = 0
 
 onsite density matrix
 
spin component  1
 
  0.8190
 
spin component  2
 
  0.8190
 
 occupancies and eigenvectors
 
  o =  0.8190  v =  1.0000  0.0000      0.0000  0.0000
  o =  0.8190  v =  0.0000  1.0000      0.0000  0.0000
atom =  19  type =  4  l = 0
 
 onsite density matrix
 
spin component  1
 
  0.8190
 
spin component  2
 
  0.8190
 
 occupancies and eigenvectors
 
  o =  0.8190  v =  1.0000  0.0000      0.0000  0.0000
  o =  0.8190  v =  0.0000  1.0000      0.0000  0.0000
atom =  20  type =  4  l = 0
 
 onsite density matrix
 
spin component  1
 
  0.8190
 
spin component  2
 
  0.8190
 
 occupancies and eigenvectors
 
  o =  0.8190  v =  1.0000  0.0000      0.0000  0.0000
  o =  0.8190  v =  0.0000  1.0000      0.0000  0.0000
atom =  21  type =  4  l = 0
 
 onsite density matrix
 
spin component  1
 
  0.8190
 
spin component  2
 
  0.8190
 
 occupancies and eigenvectors
 
  o =  0.8190  v =  1.0000  0.0000      0.0000  0.0000
  o =  0.8190  v =  0.0000  1.0000      0.0000  0.0000
atom =  22  type =  4  l = 0
 
 onsite density matrix
 
spin component  1
 
  0.8190
 
spin component  2
 
  0.8190
 
 occupancies and eigenvectors
 
  o =  0.8190  v =  1.0000  0.0000      0.0000  0.0000
  o =  0.8190  v =  0.0000  1.0000      0.0000  0.0000
atom =  23  type =  4  l = 0
 
 onsite density matrix
 
spin component  1
 
  0.8190
 
spin component  2
 
  0.8190
 
 occupancies and eigenvectors
 
  o =  0.8190  v =  1.0000  0.0000      0.0000  0.0000
  o =  0.8190  v =  0.0000  1.0000      0.0000  0.0000
atom =  24  type =  4  l = 0
 
 onsite density matrix
 
spin component  1
 
  0.8190
 
spin component  2
 
  0.8190
 
 occupancies and eigenvectors
 
  o =  0.8190  v =  1.0000  0.0000      0.0000  0.0000
  o =  0.8190  v =  0.0000  1.0000      0.0000  0.0000
atom =  25  type =  4  l = 0
 
 onsite density matrix
 
spin component  1
 
  0.8190
 
spin component  2
 
  0.8190
 
 occupancies and eigenvectors
 
  o =  0.8190  v =  1.0000  0.0000      0.0000  0.0000
  o =  0.8190  v =  0.0000  1.0000      0.0000  0.0000
     EDDAV:  cpu time    2.8665: real time    2.8815
 BZINTS: Fermi energy: 30.725431;186.000000 electrons
         Band energy:2730.801059;  BLOECHL correction: -0.242481
       DOS:  cpu time    0.0221: real time    0.0223
    --------------------------------------------
      LOOP:  cpu time    2.9729: real time    2.9903

 eigenvalue-minimisations  :  6184
 total energy-change (2. order) : 0.2920579E+04  (-0.6608614E+04)
 number of electron     186.0000000 magnetization      18.0000000
 augmentation part      186.0000000 magnetization      18.0000000

 Free energy of the ion-electron system (eV)
  ---------------------------------------------------
  alpha Z        PSCENC =       815.31733832
  Ewald energy   TEWEN  =    -12666.40012201
  -Hartree energ DENC   =     -2744.05366796
  -exchange      EXHF   =         0.00000000
  -V(xc)+E(xc)   XCENC  =       606.72010199
  PAW double counting   =     11556.14676195   -11598.79573466
  entropy T*S    EENTRO =         0.00000000
  eigenvalues    EBANDS =      2730.80105938
  atomic energy  EATOM  =     14220.84357809
  Solvation  Ediel_sol  =         0.00000000
  ---------------------------------------------------
  free energy    TOTEN  =      2920.57931509 eV

  energy without entropy =     2920.57931509  energy(sigma->0) =     2920.57931509


--------------------------------------------------------------------------------------------------------




--------------------------------------- Iteration      1(   2)  ---------------------------------------


     EDDAV:  cpu time    2.9960: real time    3.0086
 BZINTS: Fermi energy: 16.214543;186.000000 electrons
         Band energy: 792.994037;  BLOECHL correction: -0.062468
       DOS:  cpu time    0.0231: real time    0.0232
    --------------------------------------------
      LOOP:  cpu time    3.0191: real time    3.0317

 eigenvalue-minimisations  :  6488
 total energy-change (2. order) :-0.1937807E+04  (-0.1746317E+04)
 number of electron     186.0000000 magnetization      18.0000000
 augmentation part      186.0000000 magnetization      18.0000000

 Free energy of the ion-electron system (eV)
  ---------------------------------------------------
  alpha Z        PSCENC =       815.31733832
  Ewald energy   TEWEN  =    -12666.40012201
  -Hartree energ DENC   =     -2744.05366796
  -exchange      EXHF   =         0.00000000
  -V(xc)+E(xc)   XCENC  =       606.72010199
  PAW double counting   =     11556.14676195   -11598.79573466
  entropy T*S    EENTRO =         0.00000000
  eigenvalues    EBANDS =       792.99403657
  atomic energy  EATOM  =     14220.84357809
  Solvation  Ediel_sol  =         0.00000000
  ---------------------------------------------------
  free energy    TOTEN  =       982.77229228 eV

  energy without entropy =      982.77229228  energy(sigma->0) =      982.77229228


--------------------------------------------------------------------------------------------------------




--------------------------------------- Iteration      1(   3)  ---------------------------------------


     EDDAV:  cpu time    3.0778: real time    3.0877
 BZINTS: Fermi energy: 12.100434;186.000000 electrons
         Band energy:  -1.144756;  BLOECHL correction: -0.024950
       DOS:  cpu time    0.0227: real time    0.0230
    --------------------------------------------
      LOOP:  cpu time    3.1005: real time    3.1106

 eigenvalue-minimisations  :  6776
 total energy-change (2. order) :-0.7941388E+03  (-0.7220386E+03)
 number of electron     186.0000000 magnetization      18.0000000
 augmentation part      186.0000000 magnetization      18.0000000

 Free energy of the ion-electron system (eV)
  ---------------------------------------------------
  alpha Z        PSCENC =       815.31733832
  Ewald energy   TEWEN  =    -12666.40012201
  -Hartree energ DENC   =     -2744.05366796
  -exchange      EXHF   =         0.00000000
  -V(xc)+E(xc)   XCENC  =       606.72010199
  PAW double counting   =     11556.14676195   -11598.79573466
  entropy T*S    EENTRO =         0.00000000
  eigenvalues    EBANDS =        -1.14475596
  atomic energy  EATOM  =     14220.84357809
  Solvation  Ediel_sol  =         0.00000000
  ---------------------------------------------------
  free energy    TOTEN  =       188.63349976 eV

  energy without entropy =      188.63349976  energy(sigma->0) =      188.63349976


--------------------------------------------------------------------------------------------------------




--------------------------------------- Iteration      1(   4)  ---------------------------------------


     EDDAV:  cpu time    4.0150: real time    4.0309
 BZINTS: Fermi energy: 11.415825;186.000000 electrons
         Band energy:-332.749940;  BLOECHL correction: -0.013966
       DOS:  cpu time    0.0242: real time    0.0242
    --------------------------------------------
      LOOP:  cpu time    4.0392: real time    4.0552

 eigenvalue-minimisations  :  9368
 total energy-change (2. order) :-0.3316052E+03  (-0.3145567E+03)
 number of electron     186.0000000 magnetization      18.0000000
 augmentation part      186.0000000 magnetization      18.0000000

 Free energy of the ion-electron system (eV)
  ---------------------------------------------------
  alpha Z        PSCENC =       815.31733832
  Ewald energy   TEWEN  =    -12666.40012201
  -Hartree energ DENC   =     -2744.05366796
  -exchange      EXHF   =         0.00000000
  -V(xc)+E(xc)   XCENC  =       606.72010199
  PAW double counting   =     11556.14676195   -11598.79573466
  entropy T*S    EENTRO =         0.00000000
  eigenvalues    EBANDS =      -332.74994041
  atomic energy  EATOM  =     14220.84357809
  Solvation  Ediel_sol  =         0.00000000
  ---------------------------------------------------
  free energy    TOTEN  =      -142.97168469 eV

  energy without entropy =     -142.97168469  energy(sigma->0) =     -142.97168469


--------------------------------------------------------------------------------------------------------




--------------------------------------- Iteration      1(   5)  ---------------------------------------


     EDDAV:  cpu time    4.8654: real time    4.8819
 BZINTS: Fermi energy: 10.934788;186.000000 electrons
         Band energy:-401.866205;  BLOECHL correction: -0.075320
       DOS:  cpu time    0.0203: real time    0.0204
    CHARGE:  cpu time    0.1549: real time    0.1556
    MIXING:  cpu time    0.0089: real time    0.0090
    --------------------------------------------
      LOOP:  cpu time    5.0496: real time    5.0669

 eigenvalue-minimisations  : 10552
 total energy-change (2. order) :-0.6911626E+02  (-0.6699907E+02)
 number of electron     186.0000020 magnetization      15.7233877
 augmentation part       22.3647679 magnetization      11.1751938

 Broyden mixing:
  rms(total) = 0.66226E+01    rms(broyden)= 0.66221E+01
  rms(prec ) = 0.79690E+01
  weight for this iteration     100.00

 Free energy of the ion-electron system (eV)
  ---------------------------------------------------
  alpha Z        PSCENC =       815.31733832
  Ewald energy   TEWEN  =    -12666.40012201
  -Hartree energ DENC   =     -2744.05366796
  -exchange      EXHF   =         0.00000000
  -V(xc)+E(xc)   XCENC  =       606.72010199
  PAW double counting   =     11556.14676195   -11598.79573466
  entropy T*S    EENTRO =         0.00000000
  eigenvalues    EBANDS =      -401.86620467
  atomic energy  EATOM  =     14220.84357809
  Solvation  Ediel_sol  =         0.00000000
  ---------------------------------------------------
  free energy    TOTEN  =      -212.08794895 eV

  energy without entropy =     -212.08794895  energy(sigma->0) =     -212.08794895


--------------------------------------------------------------------------------------------------------




--------------------------------------- Iteration      1(   6)  ---------------------------------------


    POTLOK:  cpu time    0.1019: real time    0.1033
    SETDIJ:  cpu time    0.0166: real time    0.0166
atom =   1  type =  1  l = 0
 
 onsite density matrix
 
spin component  1
 
  1.0566
 
spin component  2
 
  1.0558
 
 occupancies and eigenvectors
 
  o =  1.0558  v =  0.0000  1.0000      0.0000  0.0000
  o =  1.0566  v =  1.0000  0.0000      0.0000  0.0000
atom =   2  type =  1  l = 0
 
 onsite density matrix
 
spin component  1
 
  1.0562
 
spin component  2
 
  1.0564
 
 occupancies and eigenvectors
 
  o =  1.0562  v =  1.0000  0.0000      0.0000  0.0000
  o =  1.0564  v =  0.0000  1.0000      0.0000  0.0000
atom =   3  type =  1  l = 0
 
 onsite density matrix
 
spin component  1
 
  1.0562
 
spin component  2
 
  1.0564
 
 occupancies and eigenvectors
 
  o =  1.0562  v =  1.0000  0.0000      0.0000  0.0000
  o =  1.0564  v =  0.0000  1.0000      0.0000  0.0000
atom =   4  type =  1  l = 0
 
 onsite density matrix
 
spin component  1
 
  1.0566
 
spin component  2
 
  1.0558
 
 occupancies and eigenvectors
 
  o =  1.0558  v =  0.0000  1.0000      0.0000  0.0000
  o =  1.0566  v =  1.0000  0.0000      0.0000  0.0000
atom =   5  type =  1  l = 0
 
 onsite density matrix
 
spin component  1
 
  1.0575
 
spin component  2
 
  1.0576
 
 occupancies and eigenvectors
 
  o =  1.0575  v =  1.0000  0.0000      0.0000  0.0000
  o =  1.0576  v =  0.0000  1.0000      0.0000  0.0000
atom =   6  type =  2  l = 2
 
 onsite density matrix
 
spin component  1
 
  0.9677  0.0000  0.0000 -0.0010  0.0000
  0.0000  0.9533  0.0001  0.0000  0.0044
  0.0000  0.0001  0.3398  0.0000 -0.0145
 -0.0010  0.0000  0.0000  0.9513  0.0000
  0.0000  0.0044 -0.0145  0.0000  0.4149
 
spin component  2
 
  0.0171  0.0000  0.0000  0.0015  0.0000
  0.0000  0.0317  0.0000  0.0000 -0.0029
  0.0000  0.0000  0.4569  0.0000  0.0074
  0.0015  0.0000  0.0000  0.0343  0.0000
  0.0000 -0.0029  0.0074  0.0000  0.4015
 
 occupancies and eigenvectors
 
  o =  0.0170  v =  0.0000  0.0000  0.0000  0.0000  0.0000 -0.9964  0.0000  0.0000  0.0850  0.0000      0.0000  0.0000  0.0000  0.0000  0.0000  0.0000  0.0000  0.0000  0.0000  0.0000
  o =  0.0317  v =  0.0000  0.0000  0.0000  0.0000  0.0000  0.0000 -1.0000  0.0002  0.0000 -0.0078      0.0000  0.0000  0.0000  0.0000  0.0000  0.0000  0.0000  0.0000  0.0000  0.0000
  o =  0.0344  v =  0.0000  0.0000  0.0000  0.0000  0.0000 -0.0850  0.0000  0.0000 -0.9964  0.0000      0.0000  0.0000  0.0000  0.0000  0.0000  0.0000  0.0000  0.0000  0.0000  0.0000
  o =  0.3371  v =  0.0000 -0.0015  0.9831  0.0000  0.1830  0.0000  0.0000  0.0000  0.0000  0.0000      0.0000  0.0000  0.0000  0.0000  0.0000  0.0000  0.0000  0.0000  0.0000  0.0000
  o =  0.4006  v =  0.0000  0.0000  0.0000  0.0000  0.0000  0.0000  0.0077  0.1303  0.0000 -0.9914      0.0000  0.0000  0.0000  0.0000  0.0000  0.0000  0.0000  0.0000  0.0000  0.0000
  o =  0.4176  v =  0.0000  0.0080  0.1830  0.0000 -0.9831  0.0000  0.0000  0.0000  0.0000  0.0000      0.0000  0.0000  0.0000  0.0000  0.0000  0.0000  0.0000  0.0000  0.0000  0.0000
  o =  0.4579  v =  0.0000  0.0000  0.0000  0.0000  0.0000  0.0000  0.0008 -0.9915  0.0000 -0.1303      0.0000  0.0000  0.0000  0.0000  0.0000  0.0000  0.0000  0.0000  0.0000  0.0000
  o =  0.9512  v = -0.0602  0.0000  0.0000 -0.9982  0.0000  0.0000  0.0000  0.0000  0.0000  0.0000      0.0000  0.0000  0.0000  0.0000  0.0000  0.0000  0.0000  0.0000  0.0000  0.0000
  o =  0.9533  v =  0.0000  1.0000  0.0000  0.0000  0.0082  0.0000  0.0000  0.0000  0.0000  0.0000      0.0000  0.0000  0.0000  0.0000  0.0000  0.0000  0.0000  0.0000  0.0000  0.0000
  o =  0.9678  v = -0.9982  0.0000  0.0000  0.0602  0.0000  0.0000  0.0000  0.0000  0.0000  0.0000      0.0000  0.0000  0.0000  0.0000  0.0000  0.0000  0.0000  0.0000  0.0000  0.0000
atom =   7  type =  2  l = 2
 
 onsite density matrix
 
spin component  1
 
  0.9559  0.0000 -0.0000  0.0002  0.0000
  0.0000  0.9538  0.0070 -0.0000 -0.0024
 -0.0000  0.0070  0.3419 -0.0000 -0.0200
  0.0002 -0.0000 -0.0000  0.9584  0.0000
  0.0000 -0.0024 -0.0200  0.0000  0.3849
 
spin component  2
 
  0.0281  0.0000  0.0000 -0.0002 -0.0000
  0.0000  0.0330 -0.0042  0.0000  0.0015
  0.0000 -0.0042  0.4545  0.0000  0.0139
 -0.0002  0.0000  0.0000  0.0272  0.0000
 -0.0000  0.0015  0.0139  0.0000  0.4249
 
 occupancies and eigenvectors
 
  o =  0.0272  v =  0.0000  0.0000  0.0000  0.0000  0.0000 -0.2208  0.0000  0.0000 -0.9753 -0.0000      0.0000  0.0000  0.0000  0.0000  0.0000  0.0000  0.0000  0.0000  0.0000  0.0000
  o =  0.0281  v =  0.0000  0.0000  0.0000  0.0000  0.0000 -0.9753 -0.0000 -0.0000  0.2208  0.0000      0.0000  0.0000  0.0000  0.0000  0.0000  0.0000  0.0000  0.0000  0.0000  0.0000
  o =  0.0330  v =  0.0000  0.0000  0.0000  0.0000  0.0000  0.0000 -0.9999 -0.0101 -0.0000  0.0042      0.0000  0.0000  0.0000  0.0000  0.0000  0.0000  0.0000  0.0000  0.0000  0.0000
  o =  0.3339  v = -0.0000 -0.0091  0.9307 -0.0000  0.3657  0.0000  0.0000  0.0000  0.0000  0.0000      0.0000  0.0000  0.0000  0.0000  0.0000  0.0000  0.0000  0.0000  0.0000  0.0000
  o =  0.3927  v =  0.0000 -0.0085  0.3656  0.0000 -0.9307  0.0000  0.0000  0.0000  0.0000  0.0000      0.0000  0.0000  0.0000  0.0000  0.0000  0.0000  0.0000  0.0000  0.0000  0.0000
  o =  0.4194  v =  0.0000  0.0000  0.0000  0.0000  0.0000  0.0000  0.0076 -0.3674  0.0000  0.9300      0.0000  0.0000  0.0000  0.0000  0.0000  0.0000  0.0000  0.0000  0.0000  0.0000
  o =  0.4600  v =  0.0000  0.0000  0.0000  0.0000  0.0000  0.0000  0.0078 -0.9300  0.0000 -0.3674      0.0000  0.0000  0.0000  0.0000  0.0000  0.0000  0.0000  0.0000  0.0000  0.0000
  o =  0.9539  v =  0.0000  0.9999  0.0116 -0.0000 -0.0046  0.0000  0.0000  0.0000  0.0000  0.0000      0.0000  0.0000  0.0000  0.0000  0.0000  0.0000  0.0000  0.0000  0.0000  0.0000
  o =  0.9559  v = -0.9956  0.0000 -0.0000  0.0936  0.0000  0.0000  0.0000  0.0000  0.0000  0.0000      0.0000  0.0000  0.0000  0.0000  0.0000  0.0000  0.0000  0.0000  0.0000  0.0000
  o =  0.9584  v = -0.0936 -0.0000  0.0000 -0.9956 -0.0000  0.0000  0.0000  0.0000  0.0000  0.0000      0.0000  0.0000  0.0000  0.0000  0.0000  0.0000  0.0000  0.0000  0.0000  0.0000
atom =   8  type =  2  l = 2
 
 onsite density matrix
 
spin component  1
 
  0.9559  0.0000 -0.0000  0.0002  0.0000
  0.0000  0.9538  0.0070 -0.0000 -0.0024
 -0.0000  0.0070  0.3419 -0.0000 -0.0200
  0.0002 -0.0000 -0.0000  0.9584  0.0000
  0.0000 -0.0024 -0.0200  0.0000  0.3849
 
spin component  2
 
  0.0281  0.0000  0.0000 -0.0002 -0.0000
  0.0000  0.0330 -0.0042  0.0000  0.0015
  0.0000 -0.0042  0.4545  0.0000  0.0139
 -0.0002  0.0000  0.0000  0.0272  0.0000
 -0.0000  0.0015  0.0139  0.0000  0.4249
 
 occupancies and eigenvectors
 
  o =  0.0272  v =  0.0000  0.0000  0.0000  0.0000  0.0000 -0.2208  0.0000  0.0000 -0.9753  0.0000      0.0000  0.0000  0.0000  0.0000  0.0000  0.0000  0.0000  0.0000  0.0000  0.0000
  o =  0.0281  v =  0.0000  0.0000  0.0000  0.0000  0.0000 -0.9753 -0.0000 -0.0000  0.2208 -0.0000      0.0000  0.0000  0.0000  0.0000  0.0000  0.0000  0.0000  0.0000  0.0000  0.0000
  o =  0.0330  v =  0.0000  0.0000  0.0000  0.0000  0.0000  0.0000 -0.9999 -0.0101 -0.0000  0.0042      0.0000  0.0000  0.0000  0.0000  0.0000  0.0000  0.0000  0.0000  0.0000  0.0000
  o =  0.3339  v = -0.0000  0.0091 -0.9307  0.0000 -0.3657  0.0000  0.0000  0.0000  0.0000  0.0000      0.0000  0.0000  0.0000  0.0000  0.0000  0.0000  0.0000  0.0000  0.0000  0.0000
  o =  0.3927  v = -0.0000  0.0085 -0.3656 -0.0000  0.9307  0.0000  0.0000  0.0000  0.0000  0.0000      0.0000  0.0000  0.0000  0.0000  0.0000  0.0000  0.0000  0.0000  0.0000  0.0000
  o =  0.4194  v =  0.0000  0.0000  0.0000  0.0000  0.0000  0.0000 -0.0076  0.3674 -0.0000 -0.9300      0.0000  0.0000  0.0000  0.0000  0.0000  0.0000  0.0000  0.0000  0.0000  0.0000
  o =  0.4600  v =  0.0000  0.0000  0.0000  0.0000  0.0000  0.0000 -0.0078  0.9300 -0.0000  0.3674      0.0000  0.0000  0.0000  0.0000  0.0000  0.0000  0.0000  0.0000  0.0000  0.0000
  o =  0.9539  v =  0.0000  0.9999  0.0116 -0.0000 -0.0046  0.0000  0.0000  0.0000  0.0000  0.0000      0.0000  0.0000  0.0000  0.0000  0.0000  0.0000  0.0000  0.0000  0.0000  0.0000
  o =  0.9559  v = -0.9956  0.0000  0.0000  0.0936 -0.0000  0.0000  0.0000  0.0000  0.0000  0.0000      0.0000  0.0000  0.0000  0.0000  0.0000  0.0000  0.0000  0.0000  0.0000  0.0000
  o =  0.9584  v = -0.0936 -0.0000 -0.0000 -0.9956  0.0000  0.0000  0.0000  0.0000  0.0000  0.0000      0.0000  0.0000  0.0000  0.0000  0.0000  0.0000  0.0000  0.0000  0.0000  0.0000
atom =   9  type =  3  l = 2
 
 onsite density matrix
 
spin component  1
 
  0.9237  0.0000  0.0000  0.0077  0.0000
  0.0000  0.8895  0.0045  0.0000  0.0003
  0.0000  0.0045  1.3089  0.0000 -0.0039
  0.0077  0.0000  0.0000  0.9021 -0.0000
  0.0000  0.0003 -0.0039 -0.0000  1.3189
 
spin component  2
 
  0.7627 -0.0000  0.0000 -0.0119  0.0000
 -0.0000  0.8183 -0.0076  0.0000 -0.0002
  0.0000 -0.0076  0.1879 -0.0000  0.0013
 -0.0119  0.0000 -0.0000  0.7985  0.0000
  0.0000 -0.0002  0.0013  0.0000  0.1893
 
 occupancies and eigenvectors
 
  o =  0.1871  v =  0.0000  0.0000  0.0000  0.0000  0.0000 -0.0000 -0.0104 -0.8731  0.0000  0.4874      0.0000  0.0000  0.0000  0.0000  0.0000  0.0000  0.0000  0.0000  0.0000  0.0000
  o =  0.1900  v =  0.0000  0.0000  0.0000  0.0000  0.0000 -0.0000  0.0062  0.4874 -0.0000  0.8732      0.0000  0.0000  0.0000  0.0000  0.0000  0.0000  0.0000  0.0000  0.0000  0.0000
  o =  0.7591  v =  0.0000  0.0000  0.0000  0.0000  0.0000 -0.9570  0.0000 -0.0000 -0.2899 -0.0000      0.0000  0.0000  0.0000  0.0000  0.0000  0.0000  0.0000  0.0000  0.0000  0.0000
[...]
  0.000   0.000   0.000  -0.000   0.000   0.000   0.000  -0.000   0.000   0.000   0.000   0.000  -0.000   0.000   0.000   0.000
 -0.000  -0.000  -0.000   0.000   0.000   0.000  -0.000   0.000   0.000   0.000   0.000  -0.000   0.000   0.000  -0.000  -0.000
  0.000  -0.000   0.000  -0.000   0.000  -0.000   0.000   0.000   0.000   0.000  -0.001   0.000  -0.000   0.000  -0.000   0.000
  0.000   0.000   0.000   0.000  -0.000   0.000   0.000   0.000  -0.000  -0.000   0.000   0.000   0.000   0.000  -0.000   0.000
  0.000   0.000   0.000   0.000   0.000   0.000   0.000  -0.000   0.003   0.000   0.000   0.000  -0.000  -0.000  -0.000   0.000
 -0.000  -0.000   0.000  -0.000   0.000   0.000   0.000   0.000   0.000  -0.003  -0.000   0.000  -0.000   0.000   0.002   0.000
 -0.000  -0.004  -0.000   0.001   0.000   0.000  -0.001  -0.000   0.000  -0.000   0.018   0.000   0.000   0.000   0.000  -0.007
 -0.000   0.000   0.000   0.000   0.000   0.000  -0.000   0.000   0.000   0.000   0.000  -0.004  -0.000  -0.000   0.000   0.000
 -0.000  -0.000  -0.000   0.000   0.000   0.000  -0.000   0.000  -0.000  -0.000   0.000  -0.000   0.016   0.000   0.000  -0.000
  0.000   0.000   0.000   0.000   0.000   0.000   0.000   0.000  -0.000  -0.000   0.000  -0.000  -0.000  -0.000   0.000   0.000
  0.000   0.000  -0.000  -0.000   0.000  -0.000  -0.000   0.000  -0.000   0.002   0.000  -0.000   0.000  -0.000  -0.001  -0.000
  0.000   0.001   0.000   0.000   0.000  -0.000   0.000   0.000   0.000   0.000  -0.007   0.000  -0.000   0.000  -0.000   0.003
  0.000   0.000   0.000  -0.000  -0.000  -0.000   0.000  -0.000  -0.000   0.000   0.000   0.002   0.000   0.000  -0.000   0.000
  0.000   0.000   0.000  -0.000   0.000  -0.000   0.000   0.000  -0.000   0.000  -0.000   0.000  -0.006  -0.000  -0.000   0.000
  0.000   0.000  -0.000   0.000   0.000   0.000  -0.000   0.000   0.000  -0.004  -0.000   0.000   0.000   0.000   0.001   0.000
  0.000   0.000  -0.000   0.000  -0.000  -0.000   0.000   0.000  -0.003   0.000   0.000  -0.000   0.000   0.001  -0.000   0.000
 -0.000  -0.000   0.000  -0.000   0.000   0.000   0.000  -0.000   0.000  -0.000   0.000   0.000  -0.000   0.000  -0.000  -0.000
 -0.000   0.002  -0.000  -0.000  -0.000   0.000  -0.000   0.000  -0.000  -0.000   0.002   0.000   0.000   0.000   0.000  -0.001
  0.000   0.000   0.000  -0.000   0.000   0.000  -0.000   0.000  -0.000  -0.000   0.000  -0.000   0.000   0.000   0.000  -0.000
  0.000   0.000  -0.000   0.000   0.000   0.000   0.000   0.000   0.000  -0.000   0.000   0.000   0.005   0.000   0.000  -0.000
 -0.000   0.000   0.000   0.000  -0.000   0.000   0.000  -0.000  -0.000   0.000   0.000   0.004   0.000   0.000   0.000  -0.000
 -0.000  -0.000   0.000  -0.000   0.000  -0.000   0.000   0.000   0.000   0.007   0.000   0.000  -0.000   0.000  -0.002  -0.000
  0.000   0.000   0.000  -0.000   0.000   0.000   0.000  -0.000   0.006   0.000   0.000   0.000   0.000  -0.002   0.000   0.000
  0.000   0.000   0.000   0.000   0.000  -0.001  -0.000   0.000   0.000  -0.000  -0.000   0.000   0.000   0.000   0.000   0.000
  0.000  -0.003   0.000  -0.000   0.000  -0.000   0.001   0.000   0.000   0.000  -0.005   0.000  -0.000   0.000  -0.000   0.002
  0.000   0.000  -0.000   0.000   0.000   0.000   0.000  -0.001   0.000   0.000   0.000  -0.000   0.000  -0.000  -0.000   0.000
 -0.000  -0.000   0.000  -0.000   0.000   0.000  -0.000   0.000   0.000   0.000  -0.000   0.000  -0.010   0.000  -0.000   0.000
  0.000   0.000   0.000   0.000  -0.000  -0.000   0.000   0.000   0.000   0.000   0.000  -0.007   0.000  -0.000  -0.000   0.000


------------------------ aborting loop because EDIFF is reached ----------------------------------------


 


 total charge     
 
# of ion       s       p       d       f       tot
--------------------------------------------------
    1        2.000   5.696   0.489   0.188   8.373
    2        2.000   5.699   0.492   0.191   8.381
    3        2.000   5.699   0.492   0.191   8.381
    4        2.000   5.696   0.489   0.188   8.373
    5        1.999   5.698   0.483   0.188   8.368
    6        0.331   0.515   4.870   0.000   5.716
    7        0.339   0.523   4.868   0.000   5.730
    8        0.339   0.523   4.868   0.000   5.730
    9        0.399   0.577   8.331   0.000   9.307
   10        0.399   0.577   8.331   0.000   9.307
   11        1.563   3.451   0.000   0.000   5.014
   12        1.561   3.461   0.000   0.000   5.023
   13        1.561   3.465   0.000   0.000   5.026
   14        1.561   3.461   0.000   0.000   5.023
   15        1.563   3.451   0.000   0.000   5.014
   16        1.563   3.453   0.000   0.000   5.017
   17        1.563   3.453   0.000   0.000   5.017
   18        1.562   3.453   0.000   0.000   5.016
   19        1.556   3.462   0.000   0.000   5.018
   20        1.562   3.453   0.000   0.000   5.016
   21        1.566   3.450   0.000   0.000   5.016
   22        1.564   3.455   0.000   0.000   5.019
   23        1.566   3.450   0.000   0.000   5.016
   24        1.556   3.461   0.000   0.000   5.017
   25        1.556   3.461   0.000   0.000   5.017
--------------------------------------------------
tot         35.228  83.045  33.712   0.948 152.933

 


 magnetization (x)
 
# of ion       s       p       d       f       tot
--------------------------------------------------
    1        0.000   0.000   0.005   0.003   0.009
    2        0.001   0.001   0.010   0.005   0.016
    3        0.001   0.001   0.010   0.005   0.016
    4        0.000   0.000   0.005   0.003   0.009
    5        0.001   0.001   0.009   0.004   0.014
    6        0.023   0.028   3.527   0.000   3.577
    7        0.024   0.023   3.464   0.000   3.512
    8        0.024   0.023   3.464   0.000   3.512
    9        0.013   0.007   1.666   0.000   1.686
   10        0.013   0.007   1.666   0.000   1.686
   11        0.005  -0.034   0.000   0.000  -0.029
   12        0.005  -0.008   0.000   0.000  -0.003
   13        0.002  -0.017   0.000   0.000  -0.015
   14        0.005  -0.008   0.000   0.000  -0.003
   15        0.005  -0.034   0.000   0.000  -0.029
   16        0.004  -0.035   0.000   0.000  -0.031
   17        0.004  -0.035   0.000   0.000  -0.031
   18        0.006  -0.034   0.000   0.000  -0.029
   19        0.007   0.027   0.000   0.000   0.034
   20        0.006  -0.034   0.000   0.000  -0.029
   21        0.005  -0.056   0.000   0.000  -0.051
   22        0.004  -0.044   0.000   0.000  -0.039
   23        0.005  -0.056   0.000   0.000  -0.051
   24        0.006   0.012   0.000   0.000   0.018
   25        0.006   0.012   0.000   0.000   0.018
--------------------------------------------------
tot          0.176  -0.253  13.827   0.020  13.769

 
    CHARGE:  cpu time    0.1297: real time    0.1981
    FORLOC:  cpu time    0.0097: real time    0.0142
    FORNL :  cpu time    0.7731: real time    0.9122
    STRESS:  cpu time    2.3256: real time    2.8259
    FORCOR:  cpu time    0.0761: real time    0.0859
    FORHAR:  cpu time    0.0157: real time    0.0270
    MIXING:  cpu time    0.0034: real time    0.0079
    OFIELD:  cpu time    0.0001: real time    0.0001

  FORCE on cell =-STRESS in cart. coord.  units (eV):
  Direction    XX          YY          ZZ          XY          YZ          ZX
  --------------------------------------------------------------------------------------
  Alpha Z   815.31734   815.31734   815.31734
  Ewald   -4159.90943 -4219.52312 -4287.00061     0.00000    14.78641    -0.00000
  Hartree   999.09515   947.00971   868.12266     0.00000    15.77584    -0.00000
  E(xc)    -861.62507  -861.70303  -861.83086    -0.00000    -0.01455    -0.00000
  Local    -670.72188  -558.29282  -406.46042     0.00000   -30.19941     0.00000
  n-local   340.37161   340.03394   341.10275    -0.00110     0.23441     0.00195
  augment   336.20829   335.38790   333.61909     0.00000    -0.02578     0.00000
  Kinetic  3201.78192  3201.00708  3197.35416     0.00084    -0.58217    -0.00280
  Fock        0.00000     0.00000     0.00000     0.00000     0.00000     0.00000
  -------------------------------------------------------------------------------------
  Total       0.51792    -0.76301     0.22410     0.00000    -0.02524     0.00000
  in kB       2.81328    -4.14455     1.21728     0.00000    -0.13711     0.00000
  external pressure =       -0.04 kB  Pullay stress =        0.00 kB


 VOLUME and BASIS-vectors are now :
 -----------------------------------------------------------------------------
  energy-cutoff  :      520.00
  volume of cell :      294.96
      direct lattice vectors                 reciprocal lattice vectors
    -3.894703685  0.000000000  0.000000000    -0.256758943  0.000000000  0.000000000
     0.000000000  7.801478069  3.883707831     0.000000000  0.102544622  0.051497277
     0.000000000  3.900083372 -7.766091711     0.000000000  0.051281052 -0.103011869

  length of vectors
     3.894703685  8.714714372  8.690387262     0.256758943  0.114749157  0.115070376


 FORCES acting on ions
    electron-ion (+dipol)            ewald-force                    non-local-force                 convergence-correction
 -----------------------------------------------------------------------------------------------
   0.691E-15 -.237E+01 0.139E+03   0.872E-14 0.231E+01 -.138E+03   0.407E-19 -.297E-01 -.126E+01   -.143E-13 0.188E-01 -.111E+00
   0.276E-14 -.738E+02 0.730E+02   0.294E-13 0.731E+02 -.723E+02   -.217E-18 0.677E+00 -.568E+00   -.118E-13 0.324E-01 -.647E-01
   -.158E-14 0.738E+02 -.730E+02   -.524E-13 -.731E+02 0.723E+02   0.108E-18 -.677E+00 0.568E+00   -.109E-13 -.324E-01 0.647E-01
   0.657E-14 0.237E+01 -.139E+03   -.140E-13 -.231E+01 0.138E+03   0.000E+00 0.297E-01 0.126E+01   -.129E-13 -.188E-01 0.111E+00
   -.228E-14 0.184E-12 -.206E-12   -.653E-14 -.270E-12 0.512E-12   0.000E+00 0.163E-18 0.000E+00   -.124E-13 0.214E-12 -.199E-12
   -.588E-13 0.822E-12 0.111E-11   -.218E-13 0.181E-12 -.426E-12   0.000E+00 -.339E-20 0.339E-20   0.543E-15 -.130E-12 0.268E-12
   -.661E-13 0.303E+02 -.355E+02   0.200E-13 -.301E+02 0.349E+02   0.000E+00 -.161E+00 0.503E+00   -.115E-13 -.342E-01 0.293E-01
   -.682E-13 -.303E+02 0.355E+02   -.258E-13 0.301E+02 -.349E+02   0.000E+00 0.161E+00 -.503E+00   0.117E-13 0.342E-01 -.293E-01
   -.275E-12 -.355E+02 0.523E+00   -.101E-13 0.344E+02 -.511E+00   0.000E+00 0.105E+01 0.381E-01   -.173E-13 0.553E-01 -.162E-01
   -.277E-12 0.355E+02 -.523E+00   0.590E-14 -.344E+02 0.511E+00   0.424E-21 -.105E+01 -.381E-01   -.511E-13 -.553E-01 0.162E-01
   -.104E-12 0.494E+01 -.613E+02   0.231E-13 -.504E+01 0.554E+02   0.000E+00 0.112E+00 0.580E+01   -.352E-13 -.444E-02 0.230E-01
   -.102E-12 0.526E+01 -.716E+02   0.175E-13 -.458E+01 0.662E+02   0.000E+00 -.677E+00 0.536E+01   -.385E-13 -.111E-01 0.483E-01
   -.110E-12 -.778E-13 -.197E-11   0.382E-14 0.188E-12 -.281E-12   0.000E+00 0.254E-20 0.000E+00   -.275E-13 -.104E-12 0.920E-13
   -.112E-12 -.526E+01 0.716E+02   -.248E-13 0.458E+01 -.662E+02   0.339E-20 0.677E+00 -.536E+01   -.173E-13 0.111E-01 -.483E-01
   -.109E-12 -.494E+01 0.613E+02   -.229E-13 0.504E+01 -.554E+02   -.847E-21 -.112E+00 -.580E+01   -.200E-13 0.444E-02 -.230E-01
   -.115E-12 0.118E+01 -.727E+01   -.996E-14 -.222E+01 0.687E+01   0.000E+00 0.899E+00 0.407E+00   -.279E-13 -.193E-01 0.119E-01
   -.121E-12 -.118E+01 0.727E+01   0.408E-13 0.222E+01 -.687E+01   0.000E+00 -.899E+00 -.407E+00   -.101E-13 0.193E-01 -.119E-01
   -.119E-12 -.638E+02 0.130E+02   -.802E-14 0.596E+02 -.126E+02   0.000E+00 0.420E+01 -.419E+00   -.438E-14 0.157E-01 -.164E-01
   -.115E-12 0.250E-11 0.336E-11   0.129E-13 -.185E-12 0.362E-12   0.000E+00 0.000E+00 0.000E+00   -.191E-13 0.647E-13 -.320E-12
   -.115E-12 0.638E+02 -.130E+02   0.735E-14 -.596E+02 0.126E+02   0.000E+00 -.420E+01 0.419E+00   -.285E-13 -.157E-01 0.164E-01
   -.565E-14 0.276E+02 -.248E+02   -.127E-13 -.281E+02 0.249E+02   -.678E-20 0.641E+00 -.714E-01   0.810E-14 -.228E-01 0.218E-01
   0.408E-15 0.536E-12 0.121E-12   0.161E-13 0.176E-12 -.352E-12   0.000E+00 0.000E+00 0.000E+00   -.622E-14 -.980E-13 0.274E-12
   0.378E-14 -.276E+02 0.248E+02   0.176E-13 0.281E+02 -.249E+02   0.339E-20 -.641E+00 0.714E-01   -.187E-13 0.228E-01 -.218E-01
   0.401E-14 -.217E+02 -.649E+00   -.149E-13 0.220E+02 0.111E+01   0.339E-20 -.294E+00 -.456E+00   -.666E-14 0.187E-01 -.806E-02
   0.116E-15 0.217E+02 0.649E+00   0.896E-14 -.220E+02 -.111E+01   0.000E+00 0.294E+00 0.456E+00   0.113E-13 -.187E-01 0.806E-02
 -----------------------------------------------------------------------------------------------
   -.186E-11 0.334E-10 -.681E-10   -.119E-13 -.284E-13 0.178E-13   -.648E-19 0.000E+00 0.555E-16   -.370E-12 0.366E-12 -.212E-12
 
 
 POSITION                                       TOTAL-FORCE (eV/Angst)
 -----------------------------------------------------------------------------------
      0.00000      3.89892      0.12939         0.000000     -0.071910      0.041581
      0.00000      7.72843      0.05560         0.000000      0.000404      0.040069
      0.00000      3.97313     -3.93798        -0.000000     -0.000404     -0.040069
      0.00000      7.80264     -4.01177        -0.000000      0.071910     -0.041581
      0.00000      0.00000      0.00000        -0.000000     -0.000000      0.000000
     -1.94735      5.85078     -1.94119        -0.000000     -0.000000      0.000000
     -1.94735      9.74323     -1.93864        -0.000000      0.028194      0.009888
     -1.94735      1.95833     -1.94374        -0.000000     -0.028194     -0.009888
     -1.94735      5.86445      1.94764        -0.000000      0.023353      0.033716
     -1.94735      5.83711     -5.83002        -0.000000     -0.023353     -0.033716
     -1.94735      9.76083     -3.82461        -0.000000      0.008527     -0.032048
     -1.94735      5.83368     -3.83435        -0.000000     -0.009603     -0.003496
     -1.94735      1.95004     -3.88305        -0.000000     -0.000000      0.000000
     -1.94735      5.86788     -0.04804        -0.000000      0.009603      0.003496
     -1.94735      1.94073     -0.05777        -0.000000     -0.008527      0.032048
     -1.94735      7.81862     -1.92930        -0.000000     -0.156568      0.015800
     -1.94735      3.88294     -1.95308        -0.000000      0.156568     -0.015800
     -1.94735      7.84107      1.93306        -0.000000      0.049244     -0.022138
     -1.94735      3.90074      1.94185        -0.000000     -0.000000      0.000000
     -1.94735      3.86049     -5.81545        -0.000000     -0.049244      0.022138
      0.00000      9.76605     -1.92788        -0.000000      0.050410      0.018335
      0.00000      5.85078     -1.94119        -0.000000     -0.000000      0.000000
      0.00000      1.93551     -1.95450        -0.000000     -0.050410     -0.018335
      0.00000      5.86534      1.93784        -0.000000      0.009822     -0.007409
      0.00000      5.83622     -5.82023         0.000000     -0.009822      0.007409
 -----------------------------------------------------------------------------------
    total drift:                               -0.000000      0.000000     -0.000000


--------------------------------------------------------------------------------------------------------



  FREE ENERGIE OF THE ION-ELECTRON SYSTEM (eV)
  ---------------------------------------------------
  free  energy   TOTEN  =      -186.84080097 eV

  energy  without entropy=     -186.84080097  energy(sigma->0) =     -186.84080097
 


--------------------------------------------------------------------------------------------------------


    POTLOK:  cpu time    0.0726: real time    0.1165


--------------------------------------------------------------------------------------------------------


     LOOP+:  cpu time   76.1525: real time   79.8832
    4ORBIT:  cpu time    0.0000: real time    0.0000
 


 total charge     
 
# of ion       s       p       d       f       tot
--------------------------------------------------
    1        2.000   5.696   0.489   0.188   8.373
    2        2.000   5.699   0.492   0.191   8.381
    3        2.000   5.699   0.492   0.191   8.381
    4        2.000   5.696   0.489   0.188   8.373
    5        1.999   5.698   0.483   0.188   8.368
    6        0.331   0.515   4.870   0.000   5.716
    7        0.339   0.523   4.868   0.000   5.730
    8        0.339   0.523   4.868   0.000   5.730
    9        0.399   0.577   8.331   0.000   9.307
   10        0.399   0.577   8.331   0.000   9.307
   11        1.563   3.451   0.000   0.000   5.014
   12        1.561   3.461   0.000   0.000   5.023
   13        1.561   3.465   0.000   0.000   5.026
   14        1.561   3.461   0.000   0.000   5.023
   15        1.563   3.451   0.000   0.000   5.014
   16        1.563   3.453   0.000   0.000   5.017
   17        1.563   3.453   0.000   0.000   5.017
   18        1.562   3.453   0.000   0.000   5.016
   19        1.556   3.462   0.000   0.000   5.018
   20        1.562   3.453   0.000   0.000   5.016
   21        1.566   3.450   0.000   0.000   5.016
   22        1.564   3.455   0.000   0.000   5.019
   23        1.566   3.450   0.000   0.000   5.016
   24        1.556   3.461   0.000   0.000   5.017
   25        1.556   3.461   0.000   0.000   5.017
--------------------------------------------------
tot         35.228  83.045  33.712   0.948 152.933

 


 magnetization (x)
 
# of ion       s       p       d       f       tot
--------------------------------------------------
    1        0.000   0.000   0.005   0.003   0.009
    2        0.001   0.001   0.010   0.005   0.016
    3        0.001   0.001   0.010   0.005   0.016
    4        0.000   0.000   0.005   0.003   0.009
    5        0.001   0.001   0.009   0.004   0.014
    6        0.023   0.028   3.527   0.000   3.577
    7        0.024   0.023   3.464   0.000   3.512
    8        0.024   0.023   3.464   0.000   3.512
    9        0.013   0.007   1.666   0.000   1.686
   10        0.013   0.007   1.666   0.000   1.686
   11        0.005  -0.034   0.000   0.000  -0.029
   12        0.005  -0.008   0.000   0.000  -0.003
   13        0.002  -0.017   0.000   0.000  -0.015
   14        0.005  -0.008   0.000   0.000  -0.003
   15        0.005  -0.034   0.000   0.000  -0.029
   16        0.004  -0.035   0.000   0.000  -0.031
   17        0.004  -0.035   0.000   0.000  -0.031
   18        0.006  -0.034   0.000   0.000  -0.029
   19        0.007   0.027   0.000   0.000   0.034
   20        0.006  -0.034   0.000   0.000  -0.029
   21        0.005  -0.056   0.000   0.000  -0.051
   22        0.004  -0.044   0.000   0.000  -0.039
   23        0.005  -0.056   0.000   0.000  -0.051
   24        0.006   0.012   0.000   0.000   0.018
   25        0.006   0.012   0.000   0.000   0.018
--------------------------------------------------
tot          0.176  -0.253  13.827   0.020  13.769

 
 BZINTS: Fermi energy:  7.765587;186.000000 electrons
         Band energy:-295.428111;  BLOECHL correction: -0.117279

 total amount of memory used by VASP MPI-rank0    65530. kBytes
=======================================================================

   base      :      30000. kBytes
   nonlr-proj:       6217. kBytes
   fftplans  :       2449. kBytes
   grid      :       6894. kBytes
   one-center:        294. kBytes
   wavefun   :      19676. kBytes
 
  
  
 General timing and accounting informations for this job:
 ========================================================
  
                  Total CPU time used (sec):       84.420
                            User time (sec):       80.447
                          System time (sec):        3.973
                         Elapsed time (sec):       89.184
  
                   Maximum memory used (kb):      116588.
                   Average memory used (kb):           0.
  
                          Minor page faults:        34381
                          Major page faults:            0
                 Voluntary context switches:         1420
