 vasp.5.4.4.18Apr17-6-g9f103f2a35 (build Oct 03 2018 13:58:34) complex          
  
 executed on             LinuxIFC date 2019.06.04  02:05:08
 running on   40 total cores
 distrk:  each k-point on   20 cores,    2 groups
 distr:  one band on NCORES_PER_BAND=  10 cores,    2 groups


--------------------------------------------------------------------------------------------------------


 INCAR:
 POTCAR:    PAW_PBE La 06Sep2000                  
 POTCAR:    PAW_PBE Mn 06Sep2000                  
 POTCAR:    PAW_PBE Ni 02Aug2007                  
 POTCAR:    PAW_PBE O 08Apr2002                   

 ----------------------------------------------------------------------------- 
|                                                                             |
|           W    W    AA    RRRRR   N    N  II  N    N   GGGG   !!!           |
|           W    W   A  A   R    R  NN   N  II  NN   N  G    G  !!!           |
|           W    W  A    A  R    R  N N  N  II  N N  N  G       !!!           |
|           W WW W  AAAAAA  RRRRR   N  N N  II  N  N N  G  GGG   !            |
|           WW  WW  A    A  R   R   N   NN  II  N   NN  G    G                |
|           W    W  A    A  R    R  N    N  II  N    N   GGGG   !!!           |
|                                                                             |
|      You have enabled k-point parallelism (KPAR>1).                         |
|      This developmental code was originally  written by Paul Kent at ORNL,  |
|      and carefully double checked in Vienna.                                |
|      GW as well as linear response parallelism added by Martijn Marsman     |
|      and Georg Kresse.                                                      |
|      Carefully verify results versus KPAR=1.                                |
|      Report problems to Paul Kent and Vienna.                               |
|                                                                             |
 ----------------------------------------------------------------------------- 

 POTCAR:    PAW_PBE La 06Sep2000                  
   VRHFIN =La : [core=Kr4d]                                                     
   LEXCH  = PE                                                                  
   EATOM  =   865.9763 eV,   63.6475 Ry                                         
                                                                                
   TITEL  = PAW_PBE La 06Sep2000                                                
   LULTRA =        F    use ultrasoft PP ?                                      
   IUNSCR =        1    unscreen: 0-lin 1-nonlin 2-no                           
   RPACOR =    2.300    partial core radius                                     
   POMASS =  138.900; ZVAL   =   11.000    mass and valenz                      
   RCORE  =    2.800    outmost cutoff radius                                   
   RWIGS  =    2.900; RWIGS  =    1.535    wigner-seitz radius (au A)           
   ENMAX  =  219.292; ENMIN  =  164.469 eV                                      
   RCLOC  =    1.601    cutoff for local pot                                    
   LCOR   =        T    correct aug charges                                     
   LPAW   =        T    paw PP                                                  
   EAUG   =  583.575                                                            
   DEXC   =    0.000                                                            
   RMAX   =    2.853    core radius for proj-oper                               
   RAUG   =    1.300    factor for augmentation sphere                          
   RDEP   =    2.802    radius for radial grids                                 
   RDEPT  =    2.156    core radius for aug-charge                              
                                                                                
   Atomic configuration                                                         
   14 entries                                                                   
     n  l   j            E        occ.                                          
     1  0  0.50    -38741.0879   2.0000                                         
     2  0  0.50     -6166.6801   2.0000                                         
     2  1  1.50     -5526.1593   6.0000                                         
     3  0  0.50     -1319.0200   2.0000                                         
     3  1  1.50     -1114.5963   6.0000                                         
     3  2  2.50      -821.1793  10.0000                                         
     4  0  0.50      -266.3851   2.0000                                         
     4  1  1.50      -199.9276   6.0000                                         
     4  2  2.50      -103.8239  10.0000                                         
     5  0  0.50       -38.9172   2.0000                                         
     6  0  0.50        -3.6792   2.0000                                         
     5  1  1.50       -22.3948   6.0000                                         
     5  2  2.50        -3.0911   0.9999                                         
     4  3  2.50        -4.3603   0.0001                                         
   Description                                                                  
     l       E           TYP  RCUT    TYP  RCUT                                 
     0    -38.9171645     23  2.800                                             
     0     -3.6792381     23  2.800                                             
     1    -22.3948300     23  2.500                                             
     1     27.2116520     23  2.500                                             
     2     -3.0910934     23  2.500                                             
     2      1.0119135     23  2.500                                             
     3     -4.3602911     23  2.800                                             
     3     -5.7208737     23  2.800                                             
  local pseudopotential read in
  partial core-charges read in
  partial kinetic energy density read in
  atomic valenz-charges read in
  non local Contribution for L=           0  read in
    real space projection operators read in
  non local Contribution for L=           0  read in
    real space projection operators read in
  non local Contribution for L=           1  read in
    real space projection operators read in
  non local Contribution for L=           1  read in
    real space projection operators read in
  non local Contribution for L=           2  read in
    real space projection operators read in
  non local Contribution for L=           2  read in
    real space projection operators read in
  non local Contribution for L=           3  read in
    real space projection operators read in
  non local Contribution for L=           3  read in
    real space projection operators read in
    PAW grid and wavefunctions read in
 
   number of l-projection  operators is LMAX  =           8
   number of lm-projection operators is LMMAX =          32
 
 POTCAR:    PAW_PBE Mn 06Sep2000                  
   VRHFIN =Mn: d6 s1                                                            
   LEXCH  = PE                                                                  
   EATOM  =   416.7541 eV,   30.6306 Ry                                         
                                                                                
   TITEL  = PAW_PBE Mn 06Sep2000                                                
   LULTRA =        F    use ultrasoft PP ?                                      
   IUNSCR =        1    unscreen: 0-lin 1-nonlin 2-no                           
   RPACOR =    2.000    partial core radius                                     
   POMASS =   54.938; ZVAL   =    7.000    mass and valenz                      
   RCORE  =    2.300    outmost cutoff radius                                   
   RWIGS  =    2.500; RWIGS  =    1.323    wigner-seitz radius (au A)           
   ENMAX  =  269.864; ENMIN  =  202.398 eV                                      
   RCLOC  =    1.725    cutoff for local pot                                    
   LCOR   =        T    correct aug charges                                     
   LPAW   =        T    paw PP                                                  
   EAUG   =  500.711                                                            
   DEXC   =    0.000                                                            
   RMAX   =    2.343    core radius for proj-oper                               
   RAUG   =    1.300    factor for augmentation sphere                          
   RDEP   =    2.338    radius for radial grids                                 
   RDEPT  =    1.911    core radius for aug-charge                              
                                                                                
   Atomic configuration                                                         
    9 entries                                                                   
     n  l   j            E        occ.                                          
     1  0  0.50     -6424.8288   2.0000                                         
     2  0  0.50      -739.1154   2.0000                                         
     2  1  1.50      -625.3949   6.0000                                         
     3  0  0.50       -81.6100   2.0000                                         
     3  1  1.50       -50.4667   6.0000                                         
     3  2  2.50        -3.3745   6.0000                                         
     4  0  0.50        -4.1331   1.0000                                         
     4  1  0.50        -4.0817   0.0000                                         
     4  3  2.50        -1.3606   0.0000                                         
   Description                                                                  
     l       E           TYP  RCUT    TYP  RCUT                                 
     2     -3.3744664     23  2.300                                             
     2     -4.7350490     23  2.300                                             
     0     -4.1331408     23  2.300                                             
     0      7.6656614     23  2.300                                             
     1     -2.7211652     23  2.300                                             
     1     20.4087390     23  2.300                                             
  local pseudopotential read in
  partial core-charges read in
  partial kinetic energy density read in
  atomic valenz-charges read in
  non local Contribution for L=           2  read in
    real space projection operators read in
  non local Contribution for L=           2  read in
    real space projection operators read in
  non local Contribution for L=           0  read in
    real space projection operators read in
  non local Contribution for L=           0  read in
    real space projection operators read in
  non local Contribution for L=           1  read in
    real space projection operators read in
  non local Contribution for L=           1  read in
    real space projection operators read in
    PAW grid and wavefunctions read in
 
   number of l-projection  operators is LMAX  =           6
   number of lm-projection operators is LMMAX =          18
 
 POTCAR:    PAW_PBE Ni 02Aug2007                  
   VRHFIN =Ni:                                                                  
   LEXCH  = PE                                                                  
   EATOM  =  1077.6739 eV,   79.2068 Ry                                         
                                                                                
   TITEL  = PAW_PBE Ni 02Aug2007                                                
   LULTRA =        F    use ultrasoft PP ?                                      
   IUNSCR =        1    unscreen: 0-lin 1-nonlin 2-no                           
   RPACOR =    2.000    partial core radius                                     
   POMASS =   58.690; ZVAL   =   10.000    mass and valenz                      
   RCORE  =    2.300    outmost cutoff radius                                   
   RWIGS  =    2.430; RWIGS  =    1.286    wigner-seitz radius (au A)           
   ENMAX  =  269.532; ENMIN  =  202.149 eV                                      
   RCLOC  =    1.201    cutoff for local pot                                    
   LCOR   =        T    correct aug charges                                     
   LPAW   =        T    paw PP                                                  
   EAUG   =  544.565                                                            
   DEXC   =    0.000                                                            
   RMAX   =    2.357    core radius for proj-oper                               
   RAUG   =    1.300    factor for augmentation sphere                          
   RDEP   =    2.390    radius for radial grids                                 
   RDEPT  =    1.838    core radius for aug-charge                              
                                                                                
   Atomic configuration                                                         
    9 entries                                                                   
     n  l   j            E        occ.                                          
     1  0  0.50     -8206.4253   2.0000                                         
     2  0  0.50      -976.1748   2.0000                                         
     2  1  1.50      -839.0571   6.0000                                         
     3  0  0.50      -105.9991   2.0000                                         
     3  1  1.50       -66.4603   6.0000                                         
     3  2  2.50        -4.6458   9.0000                                         
     4  0  0.50        -4.4926   1.0000                                         
     4  1  1.50        -4.0817   0.0000                                         
     4  3  2.50        -1.3606   0.0000                                         
   Description                                                                  
     l       E           TYP  RCUT    TYP  RCUT                                 
     2     -4.6457903     23  2.300                                             
     2     -6.0063729     23  2.300                                             
     0     -4.4925590     23  2.300                                             
     0      5.0102601     23  2.300                                             
     1     -2.7211652     23  2.300                                             
     1     16.5183231     23  2.300                                             
  local pseudopotential read in
  partial core-charges read in
  partial kinetic energy density read in
  atomic valenz-charges read in
  non local Contribution for L=           2  read in
    real space projection operators read in
  non local Contribution for L=           2  read in
    real space projection operators read in
  non local Contribution for L=           0  read in
    real space projection operators read in
  non local Contribution for L=           0  read in
    real space projection operators read in
  non local Contribution for L=           1  read in
    real space projection operators read in
  non local Contribution for L=           1  read in
    real space projection operators read in
    PAW grid and wavefunctions read in
 
   number of l-projection  operators is LMAX  =           6
   number of lm-projection operators is LMMAX =          18
 
 POTCAR:    PAW_PBE O 08Apr2002                   
   VRHFIN =O: s2p4                                                              
   LEXCH  = PE                                                                  
   EATOM  =   432.3788 eV,   31.7789 Ry                                         
                                                                                
   TITEL  = PAW_PBE O 08Apr2002                                                 
   LULTRA =        F    use ultrasoft PP ?                                      
   IUNSCR =        1    unscreen: 0-lin 1-nonlin 2-no                           
   RPACOR =    1.200    partial core radius                                     
   POMASS =   16.000; ZVAL   =    6.000    mass and valenz                      
   RCORE  =    1.520    outmost cutoff radius                                   
   RWIGS  =    1.550; RWIGS  =    0.820    wigner-seitz radius (au A)           
   ENMAX  =  400.000; ENMIN  =  300.000 eV                                      
   ICORE  =        2    local potential                                         
   LCOR   =        T    correct aug charges                                     
   LPAW   =        T    paw PP                                                  
   EAUG   =  605.392                                                            
   DEXC   =    0.000                                                            
   RMAX   =    1.553    core radius for proj-oper                               
   RAUG   =    1.300    factor for augmentation sphere                          
   RDEP   =    1.550    radius for radial grids                                 
   RDEPT  =    1.329    core radius for aug-charge                              
                                                                                
   Atomic configuration                                                         
    4 entries                                                                   
     n  l   j            E        occ.                                          
     1  0  0.50      -514.6923   2.0000                                         
     2  0  0.50       -23.9615   2.0000                                         
     2  1  0.50        -9.0305   4.0000                                         
     3  2  1.50        -9.5241   0.0000                                         
   Description                                                                  
     l       E           TYP  RCUT    TYP  RCUT                                 
     0    -23.9615318     23  1.200                                             
     0     -9.5240782     23  1.200                                             
     1     -9.0304911     23  1.520                                             
     1      8.1634956     23  1.520                                             
     2     -9.5240782      7  1.500                                             
  local pseudopotential read in
  partial core-charges read in
  partial kinetic energy density read in
  kinetic energy density of atom read in
  atomic valenz-charges read in
  non local Contribution for L=           0  read in
    real space projection operators read in
  non local Contribution for L=           0  read in
    real space projection operators read in
  non local Contribution for L=           1  read in
    real space projection operators read in
  non local Contribution for L=           1  read in
    real space projection operators read in
    PAW grid and wavefunctions read in
 
   number of l-projection  operators is LMAX  =           4
   number of lm-projection operators is LMMAX =           8
 
 Optimization of the real space projectors (new method)

 maximal supplied QI-value         = 13.42
 optimisation between [QCUT,QGAM] = [ 11.67, 23.35] = [ 38.16,152.62] Ry 
 Optimized for a Real-space Cutoff    1.63 Angstroem

   l    n(q)    QCUT    max X(q) W(low)/X(q) W(high)/X(q)  e(spline) 
   0     11    11.673    13.882    0.27E-04    0.79E-05    0.11E-06
   0     11    11.673    12.184    0.39E-04    0.13E-04    0.19E-06
   1     11    11.673     4.523    0.73E-05    0.76E-05    0.12E-06
   1     11    11.673     4.424    0.87E-05    0.13E-04    0.19E-06
   2     10    11.673    52.481    0.65E-04    0.36E-04    0.18E-06
   2     10    11.673    38.501    0.61E-04    0.33E-04    0.17E-06
   3     10    11.673    65.631    0.17E-03    0.14E-03    0.37E-06
   3     10    11.673    56.854    0.17E-03    0.14E-03    0.37E-06
 Optimization of the real space projectors (new method)

 maximal supplied QI-value         = 16.25
 optimisation between [QCUT,QGAM] = [ 11.54, 23.24] = [ 37.28,151.24] Ry 
 Optimized for a Real-space Cutoff    1.53 Angstroem

   l    n(q)    QCUT    max X(q) W(low)/X(q) W(high)/X(q)  e(spline) 
   2     10    11.539   110.144    0.12E-03    0.13E-03    0.25E-06
   2     10    11.539   103.200    0.12E-03    0.13E-03    0.25E-06
   0     11    11.539    68.437    0.46E-04    0.21E-04    0.32E-06
   0     11    11.539    33.971    0.37E-04    0.19E-04    0.29E-06
   1     10    11.539    17.065    0.51E-04    0.22E-04    0.13E-06
   1     10    11.539    12.540    0.41E-04    0.18E-04    0.11E-06
 Optimization of the real space projectors (new method)

 maximal supplied QI-value         = 16.25
 optimisation between [QCUT,QGAM] = [ 11.54, 23.24] = [ 37.28,151.24] Ry 
 Optimized for a Real-space Cutoff    1.45 Angstroem

   l    n(q)    QCUT    max X(q) W(low)/X(q) W(high)/X(q)  e(spline) 
   2      9    11.539    60.317    0.19E-03    0.47E-04    0.16E-06
   2      9    11.539    55.921    0.19E-03    0.48E-04    0.16E-06
   0     10    11.539    51.690    0.80E-04    0.50E-04    0.24E-06
   0     10    11.539    30.015    0.73E-04    0.45E-04    0.22E-06
   1     10    11.539    18.849    0.87E-04    0.16E-03    0.71E-07
   1     10    11.539    14.624    0.73E-04    0.13E-03    0.64E-07
 Optimization of the real space projectors (new method)

 maximal supplied QI-value         = 24.76
 optimisation between [QCUT,QGAM] = [ 11.64, 23.27] = [ 37.91,151.63] Ry 
 Optimized for a Real-space Cutoff    1.14 Angstroem

   l    n(q)    QCUT    max X(q) W(low)/X(q) W(high)/X(q)  e(spline) 
   0      8    11.635    20.381    0.10E-03    0.33E-03    0.24E-06
   0      8    11.635    15.268    0.11E-03    0.35E-03    0.26E-06
   1      7    11.635     5.964    0.24E-03    0.31E-03    0.30E-06
   1      7    11.635     5.382    0.22E-03    0.25E-03    0.26E-06
  PAW_PBE La 06Sep2000                  :
 energy of atom  1       EATOM= -865.9763
 kinetic energy error for atom=    0.0009 (will be added to EATOM!!)
  PAW_PBE Mn 06Sep2000                  :
 energy of atom  2       EATOM= -416.7541
 kinetic energy error for atom=    0.0024 (will be added to EATOM!!)
  PAW_PBE Ni 02Aug2007                  :
 energy of atom  3       EATOM=-1077.6739
 kinetic energy error for atom=    0.0030 (will be added to EATOM!!)
  PAW_PBE O 08Apr2002                   :
 energy of atom  4       EATOM= -432.3788
 kinetic energy error for atom=    0.0208 (will be added to EATOM!!)
 
 
 POSCAR: SCEL6_6_1_1_0_5_5/2                     
  positions in direct lattice
  velocities in cartesian coordinates
 exchange correlation table for  LEXCH =        8
   RHO(1)=    0.500       N(1)  =     2000
   RHO(2)=  100.500       N(2)  =     4000
 


--------------------------------------------------------------------------------------------------------


 ion  position               nearest neighbor table
   1  0.667  0.333  0.837-  17 2.72  23 2.72  29 2.72  16 2.76  22 2.76  28 2.76  28 2.76  22 2.76
                            16 2.76  27 2.81  15 2.81  21 2.81  10 3.33  11 3.36  11 3.36  11 3.36
   2  0.333  0.667  0.671-  28 2.71  22 2.71  16 2.71  21 2.76  27 2.76  15 2.76  21 2.76  15 2.76
                            27 2.76  14 2.80  20 2.80  26 2.80  11 3.33   9 3.36   9 3.36   9 3.36
   3  0.000  0.000  0.496-  13 2.71  19 2.71  25 2.71  26 2.76  20 2.76  14 2.76  14 2.76  20 2.76
                            26 2.76  21 2.80  15 2.80  27 2.80  12 3.33   8 3.36   8 3.36   8 3.36
   4  0.667  0.333  0.329-  30 2.72  24 2.72  18 2.72  13 2.76  19 2.76  25 2.76  25 2.76  13 2.76
                            19 2.76  14 2.81  20 2.81  26 2.81  10 3.33  12 3.36  12 3.36  12 3.36
   5  0.333  0.667  0.166-  17 2.76  23 2.76  29 2.76  18 2.76  30 2.76  24 2.76  18 2.76  24 2.76
                            30 2.76  25 2.77  13 2.77  19 2.77  11 3.37   8 3.37  10 3.38  10 3.38
   6  0.000  0.000  0.000-  18 2.76  24 2.76  30 2.76  23 2.76  23 2.76  29 2.76  17 2.76  17 2.76
                            29 2.76  22 2.77  16 2.77  28 2.77  12 3.37   9 3.37  10 3.38  10 3.38
   7  0.667  0.333  0.583-  14 1.99  20 1.99  27 1.99  26 1.99  15 1.99  21 1.99   3 3.40   3 3.40
                             3 3.40   2 3.40   2 3.40   2 3.40
   8  0.333  0.667  0.416-  14 1.92  20 1.92  26 1.92  25 1.93  19 1.93  13 1.93   3 3.36   3 3.36
                             3 3.36   5 3.37   4 3.39   4 3.39   4 3.39
   9  0.000  0.000  0.751-  15 1.92  21 1.92  27 1.92  22 1.93  16 1.93  28 1.93   2 3.36   2 3.36
                             2 3.36   6 3.37   1 3.39   1 3.39   1 3.39
  10  0.667  0.333  0.083-  17 1.91  23 1.91  30 1.91  29 1.91  18 1.91  24 1.91   1 3.33   4 3.33
                             6 3.38   5 3.38   5 3.38   6 3.38   6 3.38   5 3.38
  11  0.333  0.667  0.917-  28 1.97  16 1.97  22 1.97  23 1.99  17 1.99  29 1.99   2 3.33   1 3.36
                             1 3.36   1 3.36   5 3.37   6 3.38   6 3.38   6 3.38
  12  0.000  0.000  0.250-  13 1.97  19 1.97  25 1.97  24 1.99  18 1.99  30 1.99   3 3.33   4 3.36
                             4 3.36   4 3.36   6 3.37   5 3.38   5 3.38   5 3.38
  13  0.664  0.832  0.334-   8 1.93  12 1.97   3 2.71   4 2.76   4 2.76   5 2.77
  14  0.007  0.503  0.499-   8 1.92   7 1.99   3 2.76   3 2.76   2 2.80   4 2.81
  15  0.327  0.163  0.668-   9 1.92   7 1.99   2 2.76   2 2.76   3 2.80   1 2.81
  16  0.669  0.835  0.832-   9 1.93  11 1.97   2 2.71   1 2.76   1 2.76   6 2.77
  17  0.993  0.496  0.002-  10 1.91  11 1.99   1 2.72   5 2.76   6 2.76   6 2.76
  18  0.341  0.170  0.165-  10 1.91  12 1.99   4 2.72   6 2.76   5 2.76   5 2.76
  19  0.168  0.336  0.334-   8 1.93  12 1.97   3 2.71   4 2.76   4 2.76   5 2.77
  20  0.497  0.993  0.499-   8 1.92   7 1.99   3 2.76   3 2.76   2 2.80   4 2.81
  21  0.837  0.673  0.668-   9 1.92   7 1.99   2 2.76   2 2.76   3 2.80   1 2.81
  22  0.165  0.331  0.832-   9 1.93  11 1.97   2 2.71   1 2.76   1 2.76   6 2.77
  23  0.504  0.007  0.002-  10 1.91  11 1.99   1 2.72   5 2.76   6 2.76   6 2.76
  24  0.830  0.659  0.165-  10 1.91  12 1.99   4 2.72   6 2.76   5 2.76   5 2.76
  25  0.168  0.832  0.334-   8 1.93  12 1.97   3 2.71   4 2.76   4 2.76   5 2.77
  26  0.497  0.503  0.499-   8 1.92   7 1.99   3 2.76   3 2.76   2 2.80   4 2.81
  27  0.837  0.163  0.668-   9 1.92   7 1.99   2 2.76   2 2.76   3 2.80   1 2.81
  28  0.165  0.835  0.832-   9 1.93  11 1.97   2 2.71   1 2.76   1 2.76   6 2.77
  29  0.504  0.496  0.002-  10 1.91  11 1.99   1 2.72   5 2.76   6 2.76   6 2.76
  30  0.830  0.170  0.165-  10 1.91  12 1.99   4 2.72   6 2.76   5 2.76   5 2.76
 
  LATTYP: Found a hexagonal cell.
 ALAT       =     5.5187399044
 C/A-ratio  =     2.4496876624
  
  Lattice vectors:
  
 A1 = (   3.9023384100,   0.0000000000,  -3.9023384100)
 A2 = (  -3.9023384100,   3.9023384100,   0.0000000000)
 A3 = (   7.8053074406,   7.8053074406,   7.8053074406)


Analysis of symmetry for initial positions (statically):
=====================================================================
 Subroutine PRICEL returns:
 Original cell was already a primitive cell.
 

 Routine SETGRP: Setting up the symmetry group for a 
 hexagonal supercell.


 Subroutine GETGRP returns: Found 12 space group operations
 (whereof  6 operations were pure point group operations)
 out of a pool of 24 trial point group operations.


The static configuration has the point symmetry C_3v.
 The point group associated with its full space group is D_3d.


Analysis of symmetry for dynamics (positions and initial velocities):
=====================================================================
 Subroutine PRICEL returns:
 Original cell was already a primitive cell.
 

 Routine SETGRP: Setting up the symmetry group for a 
 hexagonal supercell.


 Subroutine GETGRP returns: Found 12 space group operations
 (whereof  6 operations were pure point group operations)
 out of a pool of 24 trial point group operations.


The dynamic configuration has the point symmetry C_3v.
 The point group associated with its full space group is D_3d.


Analysis of structural, dynamic, and magnetic symmetry:
=====================================================================
 Subroutine PRICEL returns:
 Original cell was already a primitive cell.
 

 Routine SETGRP: Setting up the symmetry group for a 
 hexagonal supercell.


 Subroutine GETGRP returns: Found 12 space group operations
 (whereof  6 operations were pure point group operations)
 out of a pool of 24 trial point group operations.


The magnetic configuration has the point symmetry C_3v.
 The point group associated with its full space group is D_3d.


 Subroutine INISYM returns: Found 12 space group operations
 (whereof  6 operations are pure point group operations),
 and found     1 'primitive' translations

 
 
 KPOINTS: Automatic mesh                          

Automatic generation of k-mesh.
 generate k-points for:    4    4    1
Space group operators:
 irot       det(A)        alpha          n_x          n_y          n_z        tau_x        tau_y        tau_z
    1     1.000000     0.000000     1.000000     0.000000     0.000000     0.000000     0.000000     0.000000
    2     1.000000   120.000000    -0.577350    -0.577350    -0.577350     0.000000     0.000000     0.000000
    3     1.000000   120.000000     0.577350     0.577350     0.577350     0.000000     0.000000     0.000000
    4    -1.000000   180.000000     0.707107     0.000000    -0.707107     0.000000     0.000000     0.000000
    5    -1.000000   180.000000     0.707107    -0.707107     0.000000     0.000000     0.000000     0.000000
    6    -1.000000   180.000000     0.000000    -0.707107     0.707107     0.000000     0.000000     0.000000
    7    -1.000000     0.000000     1.000000     0.000000     0.000000     0.333333     0.666667     0.166667
    8    -1.000000   120.000000    -0.577350    -0.577350    -0.577350     0.333333     0.666667     0.166667
    9    -1.000000   120.000000     0.577350     0.577350     0.577350     0.333333     0.666667     0.166667
   10     1.000000   180.000000     0.707107     0.000000    -0.707107     0.333333     0.666667     0.166667
   11     1.000000   180.000000     0.707107    -0.707107     0.000000     0.333333     0.666667     0.166667
   12     1.000000   180.000000     0.000000    -0.707107     0.707107     0.333333     0.666667     0.166667
 
 Subroutine IBZKPT returns following result:
 ===========================================
 
 Found      4 irreducible k-points:
 
 Following reciprocal coordinates:
            Coordinates               Weight
  0.000000  0.000000  0.000000      1.000000
  0.250000  0.000000  0.000000      6.000000
  0.500000  0.000000  0.000000      3.000000
  0.250000  0.250000  0.000000      6.000000
 
 Following cartesian coordinates:
            Coordinates               Weight
  0.000000  0.000000  0.000000      1.000000
  0.021355  0.021355 -0.042709      6.000000
  0.042709  0.042709 -0.085419      3.000000
  0.000000  0.064064 -0.064064      6.000000
 
 TETIRR: Found     10 inequivalent tetrahedra from       96


--------------------------------------------------------------------------------------------------------




 Dimension of arrays:
   k-points           NKPTS =      4   k-points in BZ     NKDIM =      4   number of bands    NBANDS=    144
   number of dos      NEDOS =    301   number of ions     NIONS =     30
   non local maximal  LDIM  =      8   non local SUM 2l+1 LMDIM =     32
   total plane-waves  NPLWV = 190512
   max r-space proj   IRMAX =   9692   max aug-charges    IRDMAX=  28114
   dimension x,y,z NGX =    42 NGY =   42 NGZ =  108
   dimension x,y,z NGXF=    84 NGYF=   84 NGZF=  216
   support grid    NGXF=    84 NGYF=   84 NGZF=  216
   ions per type =               6   4   2  18
   NGX,Y,Z   is equivalent  to a cutoff of  12.65, 12.65, 13.28 a.u.
   NGXF,Y,Z  is equivalent  to a cutoff of  25.30, 25.30, 26.56 a.u.

 SYSTEM =  final                                   
 POSCAR =  SCEL6_6_1_1_0_5_5/2                     

 Startparameter for this run:
   NWRITE =      2    write-flag & timer
   PREC   = accura    normal or accurate (medium, high low for compatibility)
   ISTART =      0    job   : 0-new  1-cont  2-samecut
   ICHARG =      1    charge: 1-file 2-atom 10-const
   ISPIN  =      2    spin polarized calculation?
   LNONCOLLINEAR =      F non collinear calculations
   LSORBIT =      F    spin-orbit coupling
   INIWAV =      1    electr: 0-lowe 1-rand  2-diag
   LASPH  =      F    aspherical Exc in radial PAW
   METAGGA=      F    non-selfconsistent MetaGGA calc.

 Electronic Relaxation 1
   ENCUT  =  520.0 eV  38.22 Ry    6.18 a.u.  10.26 10.26 25.14*2*pi/ulx,y,z
   ENINI  =  520.0     initial cutoff
   ENAUG  =  605.4 eV  augmentation charge cutoff
   NELM   =    100;   NELMIN=  2; NELMDL= -5     # of ELM steps 
   EDIFF  = 0.1E-02   stopping-criterion for ELM
   LREAL  =      T    real-space projection
   NLSPLINE    = F    spline interpolate recip. space projectors
   LCOMPAT=      F    compatible to vasp.4.4
   GGA_COMPAT  = T    GGA compatible to vasp.4.4-vasp.4.6
   LMAXPAW     = -100 max onsite density
   LMAXMIX     =    6 max onsite mixed and CHGCAR
   VOSKOWN=      0    Vosko Wilk Nusair interpolation
   ROPT   =   -0.00025  -0.00025  -0.00025  -0.00025
 Ionic relaxation
   EDIFFG = 0.1E-01   stopping-criterion for IOM
   NSW    =      0    number of steps for IOM
   NBLOCK =      1;   KBLOCK =      1    inner block; outer block 
   IBRION =     -1    ionic relax: 0-MD 1-quasi-New 2-CG
   NFREE  =      0    steps in history (QN), initial steepest desc. (CG)
   ISIF   =      2    stress and relaxation
   IWAVPR =     10    prediction:  0-non 1-charg 2-wave 3-comb
   ISYM   =      2    0-nonsym 1-usesym 2-fastsym
   LCORR  =      T    Harris-Foulkes like correction to forces

   POTIM  = 0.5000    time-step for ionic-motion
   TEIN   =    0.0    initial temperature
   TEBEG  =    0.0;   TEEND  =   0.0 temperature during run
   SMASS  =  -3.00    Nose mass-parameter (am)
   estimated Nose-frequenzy (Omega)   =  0.10E-29 period in steps =****** mass=  -0.696E-27a.u.
   SCALEE = 1.0000    scale energy and forces
   NPACO  =    256;   APACO  = 16.0  distance and # of slots for P.C.
   PSTRESS=    0.0 pullay stress

  Mass of Ions in am
   POMASS = 138.90 54.94 58.69 16.00
  Ionic Valenz
   ZVAL   =  11.00  7.00 10.00  6.00
  Atomic Wigner-Seitz radii
   RWIGS  =  -1.00 -1.00 -1.00 -1.00
  virtual crystal weights 
   VCA    =   1.00  1.00  1.00  1.00
   NELECT =     222.0000    total number of electrons
   NUPDOWN=      -1.0000    fix difference up-down

 DOS related values:
   EMIN   =  10.00;   EMAX   =-10.00  energy-range for DOS
   EFERMI =   0.00
   ISMEAR =    -5;   SIGMA  =   0.05  broadening in eV -4-tet -1-fermi 0-gaus

 Electronic relaxation 2 (details)
   IALGO  =     68    algorithm
   LDIAG  =      T    sub-space diagonalisation (order eigenvalues)
   LSUBROT=      F    optimize rotation matrix (better conditioning)
   TURBO    =      0    0=normal 1=particle mesh
   IRESTART =      0    0=no restart 2=restart with 2 vectors
   NREBOOT  =      0    no. of reboots
   NMIN     =      0    reboot dimension
   EREF     =   0.00    reference energy to select bands
   IMIX   =      4    mixing-type and parameters
     AMIX     =   0.40;   BMIX     =  1.00
     AMIX_MAG =   1.60;   BMIX_MAG =  1.00
     AMIN     =   0.10
     WC   =   100.;   INIMIX=   1;  MIXPRE=   1;  MAXMIX= -45

 Intra band minimization:
   WEIMIN = 0.0000     energy-eigenvalue tresh-hold
   EBREAK =  0.17E-05  absolut break condition
   DEPER  =   0.30     relativ break condition  

   TIME   =   0.40     timestep for ELM

  volume/ion in A,a.u.               =      11.89        80.21
  Fermi-wavevector in a.u.,A,eV,Ry     =   1.397887  2.641624 26.586988  1.954088
  Thomas-Fermi vector in A             =   2.521099
 
 Write flags
   LWAVE        =      F    write WAVECAR
   LDOWNSAMPLE  =      F    k-point downsampling of WAVECAR
   LCHARG       =      T    write CHGCAR
   LVTOT        =      F    write LOCPOT, total local potential
   LVHAR        =      F    write LOCPOT, Hartree potential only
   LELF         =      F    write electronic localiz. function (ELF)
   LORBIT       =     11    0 simple, 1 ext, 2 COOP (PROOUT), +10 PAW based schemes


 Dipole corrections
   LMONO  =      F    monopole corrections only (constant potential shift)
   LDIPOL =      F    correct potential (dipole corrections)
   IDIPOL =      0    1-x, 2-y, 3-z, 4-all directions 
   EPSILON=  1.0000000 bulk dielectric constant

 LDA+U is selected, type is set to LDAUTYPE =  2
   angular momentum for each species LDAUL =     0    2    2    0
   U (eV)           for each species LDAUU =   0.0  3.9  6.2  0.0
   J (eV)           for each species LDAUJ =   0.0  0.0  0.0  0.0
 Exchange correlation treatment:
   GGA     =    --    GGA type
   LEXCH   =     8    internal setting for exchange type
   VOSKOWN=      0    Vosko Wilk Nusair interpolation
   LHFCALC =     F    Hartree Fock is set to
   LHFONE  =     F    Hartree Fock one center treatment
   AEXX    =    0.0000 exact exchange contribution

 Linear response parameters
   LEPSILON=     F    determine dielectric tensor
   LRPA    =     F    only Hartree local field effects (RPA)
   LNABLA  =     F    use nabla operator in PAW spheres
   LVEL    =     F    velocity operator in full k-point grid
   LINTERFAST=   F  fast interpolation
   KINTER  =     0    interpolate to denser k-point grid
   CSHIFT  =0.1000    complex shift for real part using Kramers Kronig
   OMEGAMAX=  -1.0    maximum frequency
   DEG_THRESHOLD= 0.2000000E-02 threshold for treating states as degnerate
   RTIME   =   -0.100 relaxation time in fs
  (WPLASMAI=    0.000 imaginary part of plasma frequency in eV, 0.658/RTIME)
   DFIELD  = 0.0000000 0.0000000 0.0000000 field for delta impulse in time
 
 Orbital magnetization related:
   ORBITALMAG=     F  switch on orbital magnetization
   LCHIMAG   =     F  perturbation theory with respect to B field
   DQ        =  0.001000  dq finite difference perturbation B field
   LLRAUG    =     F  two centre corrections for induced B field



--------------------------------------------------------------------------------------------------------


 Static calculation
 charge density and potential will be updated during run
 spin polarized calculation
 RMM-DIIS sequential band-by-band and
  variant of blocked Davidson during initial phase
 perform sub-space diagonalisation
    before iterative eigenvector-optimisation
 modified Broyden-mixing scheme, WC =      100.0
 initial mixing is a Kerker type mixing with AMIX =  0.4000 and BMIX =      1.0000
 Hartree-type preconditioning will be used
 using additional bands           33
 real space projection scheme for non local part
 use partial core corrections
 calculate Harris-corrections to forces 
   (improved forces if not selfconsistent)
 use gradient corrections 
 use of overlap-Matrix (Vanderbilt PP)
 Fermi weights with tetrahedron method with Bloechl corrections


--------------------------------------------------------------------------------------------------------


  energy-cutoff  :      520.00
  volume of cell :      356.58
      direct lattice vectors                 reciprocal lattice vectors
     3.902338410  0.000000000 -3.902338410     0.085418869  0.085418869 -0.170837738
    -3.902338410  3.902338410  0.000000000    -0.085418869  0.170837738 -0.085418869
     7.805307441  7.805307441  7.805307441     0.042705984  0.042705984  0.042705984

  length of vectors
     5.518739904  5.518739904 13.519189056     0.209232643  0.209232643  0.073968934


 
 k-points in units of 2pi/SCALE and weight: Automatic mesh                          
   0.00000000  0.00000000  0.00000000       0.062
   0.02135472  0.02135472 -0.04270943       0.375
   0.04270943  0.04270943 -0.08541887       0.188
   0.00000000  0.06406415 -0.06406415       0.375
 
 k-points in reciprocal lattice and weights: Automatic mesh                          
   0.00000000  0.00000000  0.00000000       0.062
   0.25000000  0.00000000  0.00000000       0.375
   0.50000000  0.00000000  0.00000000       0.188
   0.25000000  0.25000000  0.00000000       0.375
 
 position of ions in fractional coordinates (direct lattice) 
   0.66666670  0.33333330  0.83736803
   0.33333330  0.66666670  0.67092885
   0.00000000  0.00000000  0.49573785
   0.66666670  0.33333330  0.32929857
   0.33333330  0.66666670  0.16640400
   0.00000000  0.00000000  0.00026270
   0.66666670  0.33333330  0.58333330
   0.33333330  0.66666670  0.41582515
   0.00000000  0.00000000  0.75084155
   0.66666670  0.33333330  0.08333330
   0.33333330  0.66666670  0.91710325
   0.00000000  0.00000000  0.24956345
   0.66418757  0.83209374  0.33446744
   0.00655059  0.50327530  0.49861355
   0.32678271  0.16339140  0.66805315
   0.66914583  0.83457286  0.83219916
   0.99271819  0.49635910  0.00185402
   0.34061511  0.17030760  0.16481268
   0.16790626  0.33581243  0.33446744
   0.49672470  0.99344941  0.49861355
   0.83660860  0.67321729  0.66805315
   0.16542714  0.33085417  0.83219916
   0.50364090  0.00728181  0.00185402
   0.82969240  0.65938489  0.16481268
   0.16790626  0.83209374  0.33446744
   0.49672470  0.50327530  0.49861355
   0.83660860  0.16339140  0.66805315
   0.16542714  0.83457286  0.83219916
   0.50364090  0.49635910  0.00185402
   0.82969240  0.17030760  0.16481268
 
 position of ions in cartesian coordinates  (Angst):
   7.83669467  7.83669428  3.93435587
   3.93602624  7.83836504  3.93602663
   3.86938630  3.86938630  3.86938630
   3.87105628  3.87105589 -0.03128252
  -0.00194533  3.90039347 -0.00194494
   0.00205044  0.00205044  0.00205044
   5.85387548  5.85387509  1.95153668
   1.94486339  5.84720219  1.94486378
   5.86054916  5.86054916  5.86054916
   1.95122176  1.95122137 -1.95111704
   5.85749311  9.75983191  5.85749350
   1.94791943  1.94791943  1.94791943
   1.95539455  5.85773257  0.01873653
   1.95344415  5.85578256  3.86626940
   5.85196840  5.85196879  3.93914353
   5.85001800  9.75235602  3.88433682
   1.95143232  1.95143232 -3.85945117
   1.95101119  1.95101158 -0.04278175
   1.95539455  3.92107494  1.95539416
   1.95344415  7.76860781  1.95344415
   5.85196840  7.84148194  1.94963038
   5.85001800  7.78667523  5.85001761
   1.95143232  0.04288724 -1.95090609
   1.95101119  3.85955666 -1.95132683
   0.01873692  5.85773257  1.95539416
   3.86626940  5.85578256  1.95344415
   7.84148155  5.85196879  1.94963038
   3.88433722  9.75235602  5.85001761
   0.04288724  1.95143232 -1.95090609
   3.85955627  1.95101158 -1.95132683
 


--------------------------------------------------------------------------------------------------------


 k-point  1 :   0.0000 0.0000 0.0000  plane waves:    9489
 k-point  2 :   0.2500 0.0000 0.0000  plane waves:    9604
 k-point  3 :   0.5000 0.0000 0.0000  plane waves:    9652
 k-point  4 :   0.2500 0.2500 0.0000  plane waves:    9592

 maximum and minimum number of plane-waves per node :       973      937

 maximum number of plane-waves:      9652
 maximum index in each direction: 
   IXMAX=   10   IYMAX=   10   IZMAX=   25
   IXMIN=  -10   IYMIN=  -10   IZMIN=  -25


 real space projection operators:
  total allocation   :      23955.72 KBytes
  max/ min on nodes  :       2769.34       2280.41


 parallel 3D FFT for wavefunctions:
    minimum data exchange during FFTs selected (reduces bandwidth)
 parallel 3D FFT for charge:
    minimum data exchange during FFTs selected (reduces bandwidth)


 total amount of memory used by VASP MPI-rank0    62290. kBytes
=======================================================================

   base      :      30000. kBytes
   nonlr-proj:       8373. kBytes
   fftplans  :       3626. kBytes
   grid      :      10597. kBytes
   one-center:        294. kBytes
   wavefun   :       9400. kBytes
 
     INWAV:  cpu time    0.0000: real time    0.0000
 Broyden mixing: mesh for mixing (old mesh)
   NGX = 21   NGY = 21   NGZ = 51
  (NGX  = 84   NGY  = 84   NGZ  =216)
  gives a total of  22491 points

 initial charge density was supplied:
 charge density of overlapping atoms calculated
 number of electron     222.0000000 magnetization      22.0000000
 keeping initial charge density in first step


--------------------------------------------------------------------------------------------------------


 Maximum index for non-local projection operator         1382
 Maximum index for augmentation-charges         2000 (set IRDMAX)


--------------------------------------------------------------------------------------------------------


 First call to EWALD:  gamma=   0.250
 Maximum number of real-space cells 4x 4x 2
 Maximum number of reciprocal cells 2x 2x 5

    FEWALD:  cpu time    0.0030: real time    0.0034


--------------------------------------- Iteration      1(   1)  ---------------------------------------


    POTLOK:  cpu time    0.1087: real time    0.1130
    SETDIJ:  cpu time    0.0168: real time    0.0169
atom =   1  type =  1  l = 0
 
 onsite density matrix
 
spin component  1
 
  1.0989
 
spin component  2
 
  1.0989
 
 occupancies and eigenvectors
 
  o =  1.0989  v =  1.0000  0.0000      0.0000  0.0000
  o =  1.0989  v =  0.0000  1.0000      0.0000  0.0000
atom =   2  type =  1  l = 0
 
 onsite density matrix
 
spin component  1
 
  1.0989
 
spin component  2
 
  1.0989
 
 occupancies and eigenvectors
 
  o =  1.0989  v =  1.0000  0.0000      0.0000  0.0000
  o =  1.0989  v =  0.0000  1.0000      0.0000  0.0000
atom =   3  type =  1  l = 0
 
 onsite density matrix
 
spin component  1
 
  1.0989
 
spin component  2
 
  1.0989
 
 occupancies and eigenvectors
 
  o =  1.0989  v =  1.0000  0.0000      0.0000  0.0000
  o =  1.0989  v =  0.0000  1.0000      0.0000  0.0000
atom =   4  type =  1  l = 0
 
 onsite density matrix
 
spin component  1
 
  1.0989
 
spin component  2
 
  1.0989
 
 occupancies and eigenvectors
 
  o =  1.0989  v =  1.0000  0.0000      0.0000  0.0000
  o =  1.0989  v =  0.0000  1.0000      0.0000  0.0000
atom =   5  type =  1  l = 0
 
 onsite density matrix
 
spin component  1
 
  1.0989
 
spin component  2
 
  1.0989
 
 occupancies and eigenvectors
 
  o =  1.0989  v =  1.0000  0.0000      0.0000  0.0000
  o =  1.0989  v =  0.0000  1.0000      0.0000  0.0000
atom =   6  type =  1  l = 0
 
 onsite density matrix
 
spin component  1
 
  1.0989
 
spin component  2
 
  1.0989
 
 occupancies and eigenvectors
 
  o =  1.0989  v =  1.0000  0.0000      0.0000  0.0000
  o =  1.0989  v =  0.0000  1.0000      0.0000  0.0000
atom =   7  type =  2  l = 2
 
 onsite density matrix
 
spin component  1
 
  0.8272  0.0000  0.0000  0.0000  0.0000
  0.0000  0.8272  0.0000  0.0000  0.0000
  0.0000  0.0000  0.8272  0.0000  0.0000
  0.0000  0.0000  0.0000  0.8272  0.0000
  0.0000  0.0000  0.0000  0.0000  0.8272
 
spin component  2
 
  0.2256  0.0000  0.0000  0.0000  0.0000
  0.0000  0.2256  0.0000  0.0000  0.0000
  0.0000  0.0000  0.2256  0.0000  0.0000
  0.0000  0.0000  0.0000  0.2256  0.0000
  0.0000  0.0000  0.0000  0.0000  0.2256
 
 occupancies and eigenvectors
 
  o =  0.2256  v =  0.0000  0.0000  0.0000  0.0000  0.0000  0.0000  0.0000  1.0000  0.0000  0.0000      0.0000  0.0000  0.0000  0.0000  0.0000  0.0000  0.0000  0.0000  0.0000  0.0000
  o =  0.2256  v =  0.0000  0.0000  0.0000  0.0000  0.0000  1.0000  0.0000  0.0000  0.0000  0.0000      0.0000  0.0000  0.0000  0.0000  0.0000  0.0000  0.0000  0.0000  0.0000  0.0000
  o =  0.2256  v =  0.0000  0.0000  0.0000  0.0000  0.0000  0.0000  1.0000  0.0000  0.0000  0.0000      0.0000  0.0000  0.0000  0.0000  0.0000  0.0000  0.0000  0.0000  0.0000  0.0000
  o =  0.2256  v =  0.0000  0.0000  0.0000  0.0000  0.0000  0.0000  0.0000  0.0000  1.0000  0.0000      0.0000  0.0000  0.0000  0.0000  0.0000  0.0000  0.0000  0.0000  0.0000  0.0000
  o =  0.2256  v =  0.0000  0.0000  0.0000  0.0000  0.0000  0.0000  0.0000  0.0000  0.0000  1.0000      0.0000  0.0000  0.0000  0.0000  0.0000  0.0000  0.0000  0.0000  0.0000  0.0000
  o =  0.8272  v =  0.0000  1.0000  0.0000  0.0000  0.0000  0.0000  0.0000  0.0000  0.0000  0.0000      0.0000  0.0000  0.0000  0.0000  0.0000  0.0000  0.0000  0.0000  0.0000  0.0000
  o =  0.8272  v =  0.0000  0.0000  1.0000  0.0000  0.0000  0.0000  0.0000  0.0000  0.0000  0.0000      0.0000  0.0000  0.0000  0.0000  0.0000  0.0000  0.0000  0.0000  0.0000  0.0000
  o =  0.8272  v =  1.0000  0.0000  0.0000  0.0000  0.0000  0.0000  0.0000  0.0000  0.0000  0.0000      0.0000  0.0000  0.0000  0.0000  0.0000  0.0000  0.0000  0.0000  0.0000  0.0000
  o =  0.8272  v =  0.0000  0.0000  0.0000  1.0000  0.0000  0.0000  0.0000  0.0000  0.0000  0.0000      0.0000  0.0000  0.0000  0.0000  0.0000  0.0000  0.0000  0.0000  0.0000  0.0000
  o =  0.8272  v =  0.0000  0.0000  0.0000  0.0000  1.0000  0.0000  0.0000  0.0000  0.0000  0.0000      0.0000  0.0000  0.0000  0.0000  0.0000  0.0000  0.0000  0.0000  0.0000  0.0000
atom =   8  type =  2  l = 2
 
 onsite density matrix
 
spin component  1
 
  0.8272  0.0000  0.0000  0.0000  0.0000
  0.0000  0.8272  0.0000  0.0000  0.0000
  0.0000  0.0000  0.8272  0.0000  0.0000
  0.0000  0.0000  0.0000  0.8272  0.0000
  0.0000  0.0000  0.0000  0.0000  0.8272
 
spin component  2
 
  0.2256  0.0000  0.0000  0.0000  0.0000
  0.0000  0.2256  0.0000  0.0000  0.0000
  0.0000  0.0000  0.2256  0.0000  0.0000
  0.0000  0.0000  0.0000  0.2256  0.0000
  0.0000  0.0000  0.0000  0.0000  0.2256
 
 occupancies and eigenvectors
 
  o =  0.2256  v =  0.0000  0.0000  0.0000  0.0000  0.0000  0.0000  0.0000  1.0000  0.0000  0.0000      0.0000  0.0000  0.0000  0.0000  0.0000  0.0000  0.0000  0.0000  0.0000  0.0000
  o =  0.2256  v =  0.0000  0.0000  0.0000  0.0000  0.0000  1.0000  0.0000  0.0000  0.0000  0.0000      0.0000  0.0000  0.0000  0.0000  0.0000  0.0000  0.0000  0.0000  0.0000  0.0000
  o =  0.2256  v =  0.0000  0.0000  0.0000  0.0000  0.0000  0.0000  1.0000  0.0000  0.0000  0.0000      0.0000  0.0000  0.0000  0.0000  0.0000  0.0000  0.0000  0.0000  0.0000  0.0000
  o =  0.2256  v =  0.0000  0.0000  0.0000  0.0000  0.0000  0.0000  0.0000  0.0000  1.0000  0.0000      0.0000  0.0000  0.0000  0.0000  0.0000  0.0000  0.0000  0.0000  0.0000  0.0000
  o =  0.2256  v =  0.0000  0.0000  0.0000  0.0000  0.0000  0.0000  0.0000  0.0000  0.0000  1.0000      0.0000  0.0000  0.0000  0.0000  0.0000  0.0000  0.0000  0.0000  0.0000  0.0000
  o =  0.8272  v =  0.0000  1.0000  0.0000  0.0000  0.0000  0.0000  0.0000  0.0000  0.0000  0.0000      0.0000  0.0000  0.0000  0.0000  0.0000  0.0000  0.0000  0.0000  0.0000  0.0000
  o =  0.8272  v =  0.0000  0.0000  1.0000  0.0000  0.0000  0.0000  0.0000  0.0000  0.0000  0.0000      0.0000  0.0000  0.0000  0.0000  0.0000  0.0000  0.0000  0.0000  0.0000  0.0000
  o =  0.8272  v =  1.0000  0.0000  0.0000  0.0000  0.0000  0.0000  0.0000  0.0000  0.0000  0.0000      0.0000  0.0000  0.0000  0.0000  0.0000  0.0000  0.0000  0.0000  0.0000  0.0000
  o =  0.8272  v =  0.0000  0.0000  0.0000  1.0000  0.0000  0.0000  0.0000  0.0000  0.0000  0.0000      0.0000  0.0000  0.0000  0.0000  0.0000  0.0000  0.0000  0.0000  0.0000  0.0000
  o =  0.8272  v =  0.0000  0.0000  0.0000  0.0000  1.0000  0.0000  0.0000  0.0000  0.0000  0.0000      0.0000  0.0000  0.0000  0.0000  0.0000  0.0000  0.0000  0.0000  0.0000  0.0000
atom =   9  type =  2  l = 2
 
 onsite density matrix
 
spin component  1
 
  0.8272  0.0000  0.0000  0.0000  0.0000
  0.0000  0.8272  0.0000  0.0000  0.0000
  0.0000  0.0000  0.8272  0.0000  0.0000
  0.0000  0.0000  0.0000  0.8272  0.0000
  0.0000  0.0000  0.0000  0.0000  0.8272
 
spin component  2
 
  0.2256  0.0000  0.0000  0.0000  0.0000
  0.0000  0.2256  0.0000  0.0000  0.0000
  0.0000  0.0000  0.2256  0.0000  0.0000
  0.0000  0.0000  0.0000  0.2256  0.0000
  0.0000  0.0000  0.0000  0.0000  0.2256
 
 occupancies and eigenvectors
 
  o =  0.2256  v =  0.0000  0.0000  0.0000  0.0000  0.0000  0.0000  0.0000  1.0000  0.0000  0.0000      0.0000  0.0000  0.0000  0.0000  0.0000  0.0000  0.0000  0.0000  0.0000  0.0000
  o =  0.2256  v =  0.0000  0.0000  0.0000  0.0000  0.0000  1.0000  0.0000  0.0000  0.0000  0.0000      0.0000  0.0000  0.0000  0.0000  0.0000  0.0000  0.0000  0.0000  0.0000  0.0000
  o =  0.2256  v =  0.0000  0.0000  0.0000  0.0000  0.0000  0.0000  1.0000  0.0000  0.0000  0.0000      0.0000  0.0000  0.0000  0.0000  0.0000  0.0000  0.0000  0.0000  0.0000  0.0000
  o =  0.2256  v =  0.0000  0.0000  0.0000  0.0000  0.0000  0.0000  0.0000  0.0000  1.0000  0.0000      0.0000  0.0000  0.0000  0.0000  0.0000  0.0000  0.0000  0.0000  0.0000  0.0000
  o =  0.2256  v =  0.0000  0.0000  0.0000  0.0000  0.0000  0.0000  0.0000  0.0000  0.0000  1.0000      0.0000  0.0000  0.0000  0.0000  0.0000  0.0000  0.0000  0.0000  0.0000  0.0000
  o =  0.8272  v =  0.0000  1.0000  0.0000  0.0000  0.0000  0.0000  0.0000  0.0000  0.0000  0.0000      0.0000  0.0000  0.0000  0.0000  0.0000  0.0000  0.0000  0.0000  0.0000  0.0000
  o =  0.8272  v =  0.0000  0.0000  1.0000  0.0000  0.0000  0.0000  0.0000  0.0000  0.0000  0.0000      0.0000  0.0000  0.0000  0.0000  0.0000  0.0000  0.0000  0.0000  0.0000  0.0000
  o =  0.8272  v =  1.0000  0.0000  0.0000  0.0000  0.0000  0.0000  0.0000  0.0000  0.0000  0.0000      0.0000  0.0000  0.0000  0.0000  0.0000  0.0000  0.0000  0.0000  0.0000  0.0000
  o =  0.8272  v =  0.0000  0.0000  0.0000  1.0000  0.0000  0.0000  0.0000  0.0000  0.0000  0.0000      0.0000  0.0000  0.0000  0.0000  0.0000  0.0000  0.0000  0.0000  0.0000  0.0000
  o =  0.8272  v =  0.0000  0.0000  0.0000  0.0000  1.0000  0.0000  0.0000  0.0000  0.0000  0.0000      0.0000  0.0000  0.0000  0.0000  0.0000  0.0000  0.0000  0.0000  0.0000  0.0000
atom =  10  type =  2  l = 2
 
 onsite density matrix
 
spin component  1
 
  0.8272  0.0000  0.0000  0.0000  0.0000
  0.0000  0.8272  0.0000  0.0000  0.0000
  0.0000  0.0000  0.8272  0.0000  0.0000
  0.0000  0.0000  0.0000  0.8272  0.0000
  0.0000  0.0000  0.0000  0.0000  0.8272
 
spin component  2
 
  0.2256  0.0000  0.0000  0.0000  0.0000
  0.0000  0.2256  0.0000  0.0000  0.0000
  0.0000  0.0000  0.2256  0.0000  0.0000
  0.0000  0.0000  0.0000  0.2256  0.0000
  0.0000  0.0000  0.0000  0.0000  0.2256
 
 occupancies and eigenvectors
 
  o =  0.2256  v =  0.0000  0.0000  0.0000  0.0000  0.0000  0.0000  0.0000  1.0000  0.0000  0.0000      0.0000  0.0000  0.0000  0.0000  0.0000  0.0000  0.0000  0.0000  0.0000  0.0000
  o =  0.2256  v =  0.0000  0.0000  0.0000  0.0000  0.0000  1.0000  0.0000  0.0000  0.0000  0.0000      0.0000  0.0000  0.0000  0.0000  0.0000  0.0000  0.0000  0.0000  0.0000  0.0000
  o =  0.2256  v =  0.0000  0.0000  0.0000  0.0000  0.0000  0.0000  1.0000  0.0000  0.0000  0.0000      0.0000  0.0000  0.0000  0.0000  0.0000  0.0000  0.0000  0.0000  0.0000  0.0000
  o =  0.2256  v =  0.0000  0.0000  0.0000  0.0000  0.0000  0.0000  0.0000  0.0000  1.0000  0.0000      0.0000  0.0000  0.0000  0.0000  0.0000  0.0000  0.0000  0.0000  0.0000  0.0000
  o =  0.2256  v =  0.0000  0.0000  0.0000  0.0000  0.0000  0.0000  0.0000  0.0000  0.0000  1.0000      0.0000  0.0000  0.0000  0.0000  0.0000  0.0000  0.0000  0.0000  0.0000  0.0000
  o =  0.8272  v =  0.0000  1.0000  0.0000  0.0000  0.0000  0.0000  0.0000  0.0000  0.0000  0.0000      0.0000  0.0000  0.0000  0.0000  0.0000  0.0000  0.0000  0.0000  0.0000  0.0000
  o =  0.8272  v =  0.0000  0.0000  1.0000  0.0000  0.0000  0.0000  0.0000  0.0000  0.0000  0.0000      0.0000  0.0000  0.0000  0.0000  0.0000  0.0000  0.0000  0.0000  0.0000  0.0000
  o =  0.8272  v =  1.0000  0.0000  0.0000  0.0000  0.0000  0.0000  0.0000  0.0000  0.0000  0.0000      0.0000  0.0000  0.0000  0.0000  0.0000  0.0000  0.0000  0.0000  0.0000  0.0000
  o =  0.8272  v =  0.0000  0.0000  0.0000  1.0000  0.0000  0.0000  0.0000  0.0000  0.0000  0.0000      0.0000  0.0000  0.0000  0.0000  0.0000  0.0000  0.0000  0.0000  0.0000  0.0000
  o =  0.8272  v =  0.0000  0.0000  0.0000  0.0000  1.0000  0.0000  0.0000  0.0000  0.0000  0.0000      0.0000  0.0000  0.0000  0.0000  0.0000  0.0000  0.0000  0.0000  0.0000  0.0000
atom =  11  type =  3  l = 2
 
 onsite density matrix
 
spin component  1
 
  1.1008  0.0000  0.0000  0.0000  0.0000
  0.0000  1.1008  0.0000  0.0000  0.0000
  0.0000  0.0000  1.1008  0.0000  0.0000
  0.0000  0.0000  0.0000  1.1008  0.0000
  0.0000  0.0000  0.0000  0.0000  1.1008
 
spin component  2
 
  0.5927  0.0000  0.0000  0.0000  0.0000
  0.0000  0.5927  0.0000  0.0000  0.0000
  0.0000  0.0000  0.5927  0.0000  0.0000
  0.0000  0.0000  0.0000  0.5927  0.0000
  0.0000  0.0000  0.0000  0.0000  0.5927
 
 occupancies and eigenvectors
 
  o =  0.5927  v =  0.0000  0.0000  0.0000  0.0000  0.0000  1.0000  0.0000  0.0000  0.0000  0.0000      0.0000  0.0000  0.0000  0.0000  0.0000  0.0000  0.0000  0.0000  0.0000  0.0000
  o =  0.5927  v =  0.0000  0.0000  0.0000  0.0000  0.0000  0.0000  1.0000  0.0000  0.0000  0.0000      0.0000  0.0000  0.0000  0.0000  0.0000  0.0000  0.0000  0.0000  0.0000  0.0000
  o =  0.5927  v =  0.0000  0.0000  0.0000  0.0000  0.0000  0.0000  0.0000  1.0000  0.0000  0.0000      0.0000  0.0000  0.0000  0.0000  0.0000  0.0000  0.0000  0.0000  0.0000  0.0000
  o =  0.5927  v =  0.0000  0.0000  0.0000  0.0000  0.0000  0.0000  0.0000  0.0000  1.0000  0.0000      0.0000  0.0000  0.0000  0.0000  0.0000  0.0000  0.0000  0.0000  0.0000  0.0000
  o =  0.5927  v =  0.0000  0.0000  0.0000  0.0000  0.0000  0.0000  0.0000  0.0000  0.0000  1.0000      0.0000  0.0000  0.0000  0.0000  0.0000  0.0000  0.0000  0.0000  0.0000  0.0000
  o =  1.1008  v =  1.0000  0.0000  0.0000  0.0000  0.0000  0.0000  0.0000  0.0000  0.0000  0.0000      0.0000  0.0000  0.0000  0.0000  0.0000  0.0000  0.0000  0.0000  0.0000  0.0000
  o =  1.1008  v =  0.0000  1.0000  0.0000  0.0000  0.0000  0.0000  0.0000  0.0000  0.0000  0.0000      0.0000  0.0000  0.0000  0.0000  0.0000  0.0000  0.0000  0.0000  0.0000  0.0000
  o =  1.1008  v =  0.0000  0.0000  1.0000  0.0000  0.0000  0.0000  0.0000  0.0000  0.0000  0.0000      0.0000  0.0000  0.0000  0.0000  0.0000  0.0000  0.0000  0.0000  0.0000  0.0000
  o =  1.1008  v =  0.0000  0.0000  0.0000  1.0000  0.0000  0.0000  0.0000  0.0000  0.0000  0.0000      0.0000  0.0000  0.0000  0.0000  0.0000  0.0000  0.0000  0.0000  0.0000  0.0000
  o =  1.1008  v =  0.0000  0.0000  0.0000  0.0000  1.0000  0.0000  0.0000  0.0000  0.0000  0.0000      0.0000  0.0000  0.0000  0.0000  0.0000  0.0000  0.0000  0.0000  0.0000  0.0000
atom =  12  type =  3  l = 2
 
 onsite density matrix
 
spin component  1
 
  1.1008  0.0000  0.0000  0.0000  0.0000
  0.0000  1.1008  0.0000  0.0000  0.0000
  0.0000  0.0000  1.1008  0.0000  0.0000
  0.0000  0.0000  0.0000  1.1008  0.0000
  0.0000  0.0000  0.0000  0.0000  1.1008
 
spin component  2
 
  0.5927  0.0000  0.0000  0.0000  0.0000
  0.0000  0.5927  0.0000  0.0000  0.0000
  0.0000  0.0000  0.5927  0.0000  0.0000
  0.0000  0.0000  0.0000  0.5927  0.0000
  0.0000  0.0000  0.0000  0.0000  0.5927
 
 occupancies and eigenvectors
 
  o =  0.5927  v =  0.0000  0.0000  0.0000  0.0000  0.0000  1.0000  0.0000  0.0000  0.0000  0.0000      0.0000  0.0000  0.0000  0.0000  0.0000  0.0000  0.0000  0.0000  0.0000  0.0000
  o =  0.5927  v =  0.0000  0.0000  0.0000  0.0000  0.0000  0.0000  1.0000  0.0000  0.0000  0.0000      0.0000  0.0000  0.0000  0.0000  0.0000  0.0000  0.0000  0.0000  0.0000  0.0000
  o =  0.5927  v =  0.0000  0.0000  0.0000  0.0000  0.0000  0.0000  0.0000  1.0000  0.0000  0.0000      0.0000  0.0000  0.0000  0.0000  0.0000  0.0000  0.0000  0.0000  0.0000  0.0000
  o =  0.5927  v =  0.0000  0.0000  0.0000  0.0000  0.0000  0.0000  0.0000  0.0000  1.0000  0.0000      0.0000  0.0000  0.0000  0.0000  0.0000  0.0000  0.0000  0.0000  0.0000  0.0000
  o =  0.5927  v =  0.0000  0.0000  0.0000  0.0000  0.0000  0.0000  0.0000  0.0000  0.0000  1.0000      0.0000  0.0000  0.0000  0.0000  0.0000  0.0000  0.0000  0.0000  0.0000  0.0000
  o =  1.1008  v =  1.0000  0.0000  0.0000  0.0000  0.0000  0.0000  0.0000  0.0000  0.0000  0.0000      0.0000  0.0000  0.0000  0.0000  0.0000  0.0000  0.0000  0.0000  0.0000  0.0000
  o =  1.1008  v =  0.0000  1.0000  0.0000  0.0000  0.0000  0.0000  0.0000  0.0000  0.0000  0.0000      0.0000  0.0000  0.0000  0.0000  0.0000  0.0000  0.0000  0.0000  0.0000  0.0000
  o =  1.1008  v =  0.0000  0.0000  1.0000  0.0000  0.0000  0.0000  0.0000  0.0000  0.0000  0.0000      0.0000  0.0000  0.0000  0.0000  0.0000  0.0000  0.0000  0.0000  0.0000  0.0000
  o =  1.1008  v =  0.0000  0.0000  0.0000  1.0000  0.0000  0.0000  0.0000  0.0000  0.0000  0.0000      0.0000  0.0000  0.0000  0.0000  0.0000  0.0000  0.0000  0.0000  0.0000  0.0000
  o =  1.1008  v =  0.0000  0.0000  0.0000  0.0000  1.0000  0.0000  0.0000  0.0000  0.0000  0.0000      0.0000  0.0000  0.0000  0.0000  0.0000  0.0000  0.0000  0.0000  0.0000  0.0000
atom =  13  type =  4  l = 0
 
 onsite density matrix
 
spin component  1
 
  0.8190
 
spin component  2
 
  0.8190
 
 occupancies and eigenvectors
 
  o =  0.8190  v =  1.0000  0.0000      0.0000  0.0000
  o =  0.8190  v =  0.0000  1.0000      0.0000  0.0000
atom =  14  type =  4  l = 0
 
 onsite density matrix
 
spin component  1
 
  0.8190
 
spin component  2
 
  0.8190
 
 occupancies and eigenvectors
 
  o =  0.8190  v =  1.0000  0.0000      0.0000  0.0000
  o =  0.8190  v =  0.0000  1.0000      0.0000  0.0000
atom =  15  type =  4  l = 0
 
 onsite density matrix
 
spin component  1
 
  0.8190
 
spin component  2
 
  0.8190
 
 occupancies and eigenvectors
 
  o =  0.8190  v =  1.0000  0.0000      0.0000  0.0000
  o =  0.8190  v =  0.0000  1.0000      0.0000  0.0000
atom =  16  type =  4  l = 0
 
 onsite density matrix
 
spin component  1
 
  0.8190
 
spin component  2
 
  0.8190
 
 occupancies and eigenvectors
 
  o =  0.8190  v =  1.0000  0.0000      0.0000  0.0000
  o =  0.8190  v =  0.0000  1.0000      0.0000  0.0000
atom =  17  type =  4  l = 0
 
 onsite density matrix
 
spin component  1
 
  0.8190
 
spin component  2
 
  0.8190
 
 occupancies and eigenvectors
 
  o =  0.8190  v =  1.0000  0.0000      0.0000  0.0000
  o =  0.8190  v =  0.0000  1.0000      0.0000  0.0000
atom =  18  type =  4  l = 0
 
 onsite density matrix
 
spin component  1
 
  0.8190
 
spin component  2
 
  0.8190
 
 occupancies and eigenvectors
 
  o =  0.8190  v =  1.0000  0.0000      0.0000  0.0000
  o =  0.8190  v =  0.0000  1.0000      0.0000  0.0000
atom =  19  type =  4  l = 0
 
 onsite density matrix
 
spin component  1
 
  0.8190
 
spin component  2
 
  0.8190
 
 occupancies and eigenvectors
 
  o =  0.8190  v =  1.0000  0.0000      0.0000  0.0000
  o =  0.8190  v =  0.0000  1.0000      0.0000  0.0000
atom =  20  type =  4  l = 0
 
 onsite density matrix
 
spin component  1
 
  0.8190
 
spin component  2
 
  0.8190
 
 occupancies and eigenvectors
 
  o =  0.8190  v =  1.0000  0.0000      0.0000  0.0000
  o =  0.8190  v =  0.0000  1.0000      0.0000  0.0000
atom =  21  type =  4  l = 0
 
 onsite density matrix
 
spin component  1
 
  0.8190
 
spin component  2
 
  0.8190
 
 occupancies and eigenvectors
 
  o =  0.8190  v =  1.0000  0.0000      0.0000  0.0000
  o =  0.8190  v =  0.0000  1.0000      0.0000  0.0000
atom =  22  type =  4  l = 0
 
 onsite density matrix
 
spin component  1
 
  0.8190
 
spin component  2
 
  0.8190
 
 occupancies and eigenvectors
 
  o =  0.8190  v =  1.0000  0.0000      0.0000  0.0000
  o =  0.8190  v =  0.0000  1.0000      0.0000  0.0000
atom =  23  type =  4  l = 0
 
 onsite density matrix
 
spin component  1
 
  0.8190
 
spin component  2
 
  0.8190
 
 occupancies and eigenvectors
 
  o =  0.8190  v =  1.0000  0.0000      0.0000  0.0000
  o =  0.8190  v =  0.0000  1.0000      0.0000  0.0000
atom =  24  type =  4  l = 0
 
 onsite density matrix
 
spin component  1
 
  0.8190
 
spin component  2
 
  0.8190
 
 occupancies and eigenvectors
 
  o =  0.8190  v =  1.0000  0.0000      0.0000  0.0000
  o =  0.8190  v =  0.0000  1.0000      0.0000  0.0000
atom =  25  type =  4  l = 0
 
 onsite density matrix
 
spin component  1
 
  0.8190
 
spin component  2
 
  0.8190
 
 occupancies and eigenvectors
 
  o =  0.8190  v =  1.0000  0.0000      0.0000  0.0000
  o =  0.8190  v =  0.0000  1.0000      0.0000  0.0000
atom =  26  type =  4  l = 0
 
 onsite density matrix
 
spin component  1
 
  0.8190
 
spin component  2
 
  0.8190
 
 occupancies and eigenvectors
 
  o =  0.8190  v =  1.0000  0.0000      0.0000  0.0000
  o =  0.8190  v =  0.0000  1.0000      0.0000  0.0000
atom =  27  type =  4  l = 0
 
 onsite density matrix
 
spin component  1
 
  0.8190
 
spin component  2
 
  0.8190
 
 occupancies and eigenvectors
 
  o =  0.8190  v =  1.0000  0.0000      0.0000  0.0000
  o =  0.8190  v =  0.0000  1.0000      0.0000  0.0000
atom =  28  type =  4  l = 0
 
 onsite density matrix
 
spin component  1
 
  0.8190
 
spin component  2
 
  0.8190
 
 occupancies and eigenvectors
 
  o =  0.8190  v =  1.0000  0.0000      0.0000  0.0000
  o =  0.8190  v =  0.0000  1.0000      0.0000  0.0000
atom =  29  type =  4  l = 0
 
 onsite density matrix
 
spin component  1
 
  0.8190
 
spin component  2
 
  0.8190
 
 occupancies and eigenvectors
 
  o =  0.8190  v =  1.0000  0.0000      0.0000  0.0000
  o =  0.8190  v =  0.0000  1.0000      0.0000  0.0000
atom =  30  type =  4  l = 0
 
 onsite density matrix
 
spin component  1
 
  0.8190
 
spin component  2
 
  0.8190
 
 occupancies and eigenvectors
 
  o =  0.8190  v =  1.0000  0.0000      0.0000  0.0000
  o =  0.8190  v =  0.0000  1.0000      0.0000  0.0000
     EDDAV:  cpu time    1.6531: real time    1.6601
 BZINTS: Fermi energy: 31.595783;222.000000 electrons
         Band energy:3340.819453;  BLOECHL correction: -0.065198
       DOS:  cpu time    0.0041: real time    0.0047
    --------------------------------------------
      LOOP:  cpu time    1.7826: real time    1.7947

 eigenvalue-minimisations  :  2448
 total energy-change (2. order) : 0.3592862E+04  (-0.7673154E+04)
 number of electron     222.0000000 magnetization      22.0000000
 augmentation part      222.0000000 magnetization      22.0000000

 Free energy of the ion-electron system (eV)
  ---------------------------------------------------
  alpha Z        PSCENC =       972.88164732
  Ewald energy   TEWEN  =    -15031.03744720
  -Hartree energ DENC   =     -3175.45667683
  -exchange      EXHF   =         0.00000000
  -V(xc)+E(xc)   XCENC  =       710.38200174
  PAW double counting   =     13644.53670636   -13669.90867429
  entropy T*S    EENTRO =         0.00000000
  eigenvalues    EBANDS =      3340.81945253
  atomic energy  EATOM  =     16800.64461370
  Solvation  Ediel_sol  =         0.00000000
  ---------------------------------------------------
  free energy    TOTEN  =      3592.86162332 eV

  energy without entropy =     3592.86162332  energy(sigma->0) =     3592.86162332


--------------------------------------------------------------------------------------------------------




--------------------------------------- Iteration      1(   2)  ---------------------------------------


     EDDAV:  cpu time    1.7115: real time    1.7191
 BZINTS: Fermi energy: 16.443421;222.000000 electrons
         Band energy: 999.884731;  BLOECHL correction: -0.024349
       DOS:  cpu time    0.0036: real time    0.0047
    --------------------------------------------
      LOOP:  cpu time    1.7151: real time    1.7238

 eigenvalue-minimisations  :  2552
 total energy-change (2. order) :-0.2340935E+04  (-0.2105886E+04)
 number of electron     222.0000000 magnetization      22.0000000
 augmentation part      222.0000000 magnetization      22.0000000

 Free energy of the ion-electron system (eV)
  ---------------------------------------------------
  alpha Z        PSCENC =       972.88164732
  Ewald energy   TEWEN  =    -15031.03744720
  -Hartree energ DENC   =     -3175.45667683
  -exchange      EXHF   =         0.00000000
  -V(xc)+E(xc)   XCENC  =       710.38200174
  PAW double counting   =     13644.53670636   -13669.90867429
  entropy T*S    EENTRO =         0.00000000
  eigenvalues    EBANDS =       999.88473065
  atomic energy  EATOM  =     16800.64461370
  Solvation  Ediel_sol  =         0.00000000
  ---------------------------------------------------
  free energy    TOTEN  =      1251.92690145 eV

  energy without entropy =     1251.92690145  energy(sigma->0) =     1251.92690145


--------------------------------------------------------------------------------------------------------




--------------------------------------- Iteration      1(   3)  ---------------------------------------


     EDDAV:  cpu time    1.7794: real time    1.7859
 BZINTS: Fermi energy: 12.081681;222.000000 electrons
         Band energy:  18.132956;  BLOECHL correction: -0.013274
       DOS:  cpu time    0.0038: real time    0.0038
    --------------------------------------------
      LOOP:  cpu time    1.7832: real time    1.7897

 eigenvalue-minimisations  :  2672
 total energy-change (2. order) :-0.9817518E+03  (-0.8866647E+03)
 number of electron     222.0000000 magnetization      22.0000000
 augmentation part      222.0000000 magnetization      22.0000000

 Free energy of the ion-electron system (eV)
  ---------------------------------------------------
  alpha Z        PSCENC =       972.88164732
  Ewald energy   TEWEN  =    -15031.03744720
  -Hartree energ DENC   =     -3175.45667683
  -exchange      EXHF   =         0.00000000
  -V(xc)+E(xc)   XCENC  =       710.38200174
  PAW double counting   =     13644.53670636   -13669.90867429
  entropy T*S    EENTRO =         0.00000000
  eigenvalues    EBANDS =        18.13295603
  atomic energy  EATOM  =     16800.64461370
  Solvation  Ediel_sol  =         0.00000000
  ---------------------------------------------------
  free energy    TOTEN  =       270.17512682 eV

  energy without entropy =      270.17512682  energy(sigma->0) =      270.17512682


--------------------------------------------------------------------------------------------------------




--------------------------------------- Iteration      1(   4)  ---------------------------------------


     EDDAV:  cpu time    2.2915: real time    2.3017
 BZINTS: Fermi energy: 11.321655;222.000000 electrons
         Band energy:-413.261521;  BLOECHL correction: -0.006420
       DOS:  cpu time    0.0038: real time    0.0038
    --------------------------------------------
      LOOP:  cpu time    2.2952: real time    2.3054

 eigenvalue-minimisations  :  3720
 total energy-change (2. order) :-0.4313945E+03  (-0.4066837E+03)
 number of electron     222.0000000 magnetization      22.0000000
 augmentation part      222.0000000 magnetization      22.0000000

 Free energy of the ion-electron system (eV)
  ---------------------------------------------------
  alpha Z        PSCENC =       972.88164732
  Ewald energy   TEWEN  =    -15031.03744720
  -Hartree energ DENC   =     -3175.45667683
  -exchange      EXHF   =         0.00000000
  -V(xc)+E(xc)   XCENC  =       710.38200174
  PAW double counting   =     13644.53670636   -13669.90867429
  entropy T*S    EENTRO =         0.00000000
  eigenvalues    EBANDS =      -413.26152059
  atomic energy  EATOM  =     16800.64461370
  Solvation  Ediel_sol  =         0.00000000
  ---------------------------------------------------
  free energy    TOTEN  =      -161.21934980 eV

  energy without entropy =     -161.21934980  energy(sigma->0) =     -161.21934980


--------------------------------------------------------------------------------------------------------




--------------------------------------- Iteration      1(   5)  ---------------------------------------


     EDDAV:  cpu time    2.5834: real time    2.5931
 BZINTS: Fermi energy: 10.967129;222.000000 electrons
         Band energy:-507.587768;  BLOECHL correction: -0.028650
       DOS:  cpu time    0.0038: real time    0.0038
    CHARGE:  cpu time    0.1115: real time    0.1137
    MIXING:  cpu time    0.0058: real time    0.0059
    --------------------------------------------
      LOOP:  cpu time    2.7045: real time    2.7165

 eigenvalue-minimisations  :  4216
 total energy-change (2. order) :-0.9432625E+02  (-0.9102439E+02)
 number of electron     222.0000031 magnetization      20.5396188
 augmentation part       25.9814769 magnetization      14.9528974

 Broyden mixing:
  rms(total) = 0.70771E+01    rms(broyden)= 0.70767E+01
  rms(prec ) = 0.77411E+01
  weight for this iteration     100.00

 Free energy of the ion-electron system (eV)
  ---------------------------------------------------
  alpha Z        PSCENC =       972.88164732
  Ewald energy   TEWEN  =    -15031.03744720
  -Hartree energ DENC   =     -3175.45667683
  -exchange      EXHF   =         0.00000000
  -V(xc)+E(xc)   XCENC  =       710.38200174
  PAW double counting   =     13644.53670636   -13669.90867429
  entropy T*S    EENTRO =         0.00000000
  eigenvalues    EBANDS =      -507.58776782
  atomic energy  EATOM  =     16800.64461370
  Solvation  Ediel_sol  =         0.00000000
  ---------------------------------------------------
  free energy    TOTEN  =      -255.54559703 eV

  energy without entropy =     -255.54559703  energy(sigma->0) =     -255.54559703


--------------------------------------------------------------------------------------------------------




--------------------------------------- Iteration      1(   6)  ---------------------------------------


    POTLOK:  cpu time    0.1058: real time    0.1100
    SETDIJ:  cpu time    0.0154: real time    0.0155
atom =   1  type =  1  l = 0
 
 onsite density matrix
 
spin component  1
 
  1.0558
 
spin component  2
 
  1.0564
 
 occupancies and eigenvectors
 
  o =  1.0558  v =  1.0000  0.0000      0.0000  0.0000
  o =  1.0564  v =  0.0000  1.0000      0.0000  0.0000
atom =   2  type =  1  l = 0
 
 onsite density matrix
 
spin component  1
 
  1.0558
 
spin component  2
 
  1.0562
 
 occupancies and eigenvectors
 
  o =  1.0558  v =  1.0000  0.0000      0.0000  0.0000
  o =  1.0562  v =  0.0000  1.0000      0.0000  0.0000
atom =   3  type =  1  l = 0
 
 onsite density matrix
 
spin component  1
 
  1.0558
 
spin component  2
 
  1.0562
 
 occupancies and eigenvectors
 
  o =  1.0558  v =  1.0000  0.0000      0.0000  0.0000
  o =  1.0562  v =  0.0000  1.0000      0.0000  0.0000
atom =   4  type =  1  l = 0
 
 onsite density matrix
 
spin component  1
 
  1.0558
 
spin component  2
 
  1.0564
 
 occupancies and eigenvectors
 
  o =  1.0558  v =  1.0000  0.0000      0.0000  0.0000
  o =  1.0564  v =  0.0000  1.0000      0.0000  0.0000
atom =   5  type =  1  l = 0
 
 onsite density matrix
 
spin component  1
 
  1.0568
 
spin component  2
 
  1.0568
 
 occupancies and eigenvectors
 
  o =  1.0568  v =  0.0000  1.0000      0.0000  0.0000
  o =  1.0568  v =  1.0000  0.0000      0.0000  0.0000
atom =   6  type =  1  l = 0
 
 onsite density matrix
 
spin component  1
 
  1.0568
 
spin component  2
 
  1.0568
 
 occupancies and eigenvectors
 
  o =  1.0568  v =  0.0000  1.0000      0.0000  0.0000
  o =  1.0568  v =  1.0000  0.0000      0.0000  0.0000
atom =   7  type =  2  l = 2
 
 onsite density matrix
 
spin component  1
 
  0.9515  0.0105  0.0101  0.0105  0.0000
  0.0105  0.9515 -0.0051  0.0105  0.0088
  0.0101 -0.0051  0.4555 -0.0051  0.0000
  0.0105  0.0105 -0.0051  0.9515 -0.0088
  0.0000  0.0088  0.0000 -0.0088  0.4555
 
spin component  2
 
  0.0255 -0.0063 -0.0060 -0.0063  0.0000
 -0.0063  0.0255  0.0030 -0.0063 -0.0052
 -0.0060  0.0030  0.3686  0.0030 -0.0000
 -0.0063 -0.0063  0.0030  0.0255  0.0052
  0.0000 -0.0052 -0.0000  0.0052  0.3686
 
 occupancies and eigenvectors
 
  o =  0.0128  v =  0.0000  0.0000  0.0000  0.0000  0.0000 -0.5774 -0.5774  0.0000 -0.5774  0.0000      0.0000  0.0000  0.0000  0.0000  0.0000  0.0000  0.0000  0.0000  0.0000  0.0000
  o =  0.0317  v =  0.0000  0.0000  0.0000  0.0000  0.0000 -0.1216 -0.6383 -0.0033  0.7598 -0.0217      0.0000  0.0000  0.0000  0.0000  0.0000  0.0000  0.0000  0.0000  0.0000  0.0000
  o =  0.0317  v =  0.0000  0.0000  0.0000  0.0000  0.0000 -0.8072  0.5089 -0.0217  0.2983  0.0033      0.0000  0.0000  0.0000  0.0000  0.0000  0.0000  0.0000  0.0000  0.0000  0.0000
  o =  0.3688  v =  0.0000  0.0000  0.0000  0.0000  0.0000  0.0107  0.0071 -0.5962 -0.0178 -0.8025      0.0000  0.0000  0.0000  0.0000  0.0000  0.0000  0.0000  0.0000  0.0000  0.0000
  o =  0.3688  v =  0.0000  0.0000  0.0000  0.0000  0.0000 -0.0144  0.0164  0.8025 -0.0021 -0.5962      0.0000  0.0000  0.0000  0.0000  0.0000  0.0000  0.0000  0.0000  0.0000  0.0000
  o =  0.4552  v = -0.0208  0.0119  0.9960  0.0089 -0.0851  0.0000  0.0000  0.0000  0.0000  0.0000      0.0000  0.0000  0.0000  0.0000  0.0000  0.0000  0.0000  0.0000  0.0000  0.0000
  o =  0.4552  v = -0.0018 -0.0171  0.0851  0.0189  0.9960  0.0000  0.0000  0.0000  0.0000  0.0000      0.0000  0.0000  0.0000  0.0000  0.0000  0.0000  0.0000  0.0000  0.0000  0.0000
  o =  0.9413  v = -0.7985  0.5458 -0.0250  0.2526  0.0053  0.0000  0.0000  0.0000  0.0000  0.0000      0.0000  0.0000  0.0000  0.0000  0.0000  0.0000  0.0000  0.0000  0.0000  0.0000
  o =  0.9413  v =  0.1693  0.6069  0.0053 -0.7761  0.0250  0.0000  0.0000  0.0000  0.0000  0.0000      0.0000  0.0000  0.0000  0.0000  0.0000  0.0000  0.0000  0.0000  0.0000  0.0000
  o =  0.9725  v = -0.5774 -0.5774  0.0000 -0.5774  0.0000  0.0000  0.0000  0.0000  0.0000  0.0000      0.0000  0.0000  0.0000  0.0000  0.0000  0.0000  0.0000  0.0000  0.0000  0.0000
atom =   8  type =  2  l = 2
 
 onsite density matrix
 
spin component  1
 
  0.9416  0.0042 -0.0017  0.0042  0.0000
  0.0042  0.9416  0.0008  0.0042 -0.0014
 -0.0017  0.0008  0.3828  0.0008  0.0000
  0.0042  0.0042  0.0008  0.9416  0.0014
  0.0000 -0.0014  0.0000  0.0014  0.3828
 
spin component  2
 
  0.0413 -0.0025  0.0013 -0.0025  0.0000
 -0.0025  0.0413 -0.0006 -0.0025  0.0011
  0.0013 -0.0006  0.4293 -0.0006 -0.0000
 -0.0025 -0.0025 -0.0006  0.0413 -0.0011
  0.0000  0.0011 -0.0000 -0.0011  0.4293
 
 occupancies and eigenvectors
 
  o =  0.0363  v =  0.0000  0.0000  0.0000  0.0000  0.0000  0.5774  0.5774 -0.0000  0.5774  0.0000      0.0000  0.0000  0.0000  0.0000  0.0000  0.0000  0.0000  0.0000  0.0000  0.0000
  o =  0.0438  v =  0.0000  0.0000  0.0000  0.0000  0.0000  0.8165 -0.4026 -0.0041 -0.4138 -0.0000      0.0000  0.0000  0.0000  0.0000  0.0000  0.0000  0.0000  0.0000  0.0000  0.0000
  o =  0.0438  v =  0.0000  0.0000  0.0000  0.0000  0.0000  0.0065 -0.7103 -0.0000  0.7038  0.0041      0.0000  0.0000  0.0000  0.0000  0.0000  0.0000  0.0000  0.0000  0.0000  0.0000
  o =  0.3828  v = -0.0030  0.0016 -0.9998  0.0015  0.0204  0.0000  0.0000  0.0000  0.0000  0.0000      0.0000  0.0000  0.0000  0.0000  0.0000  0.0000  0.0000  0.0000  0.0000  0.0000
  o =  0.3828  v =  0.0001  0.0026  0.0204 -0.0026  0.9998  0.0000  0.0000  0.0000  0.0000  0.0000      0.0000  0.0000  0.0000  0.0000  0.0000  0.0000  0.0000  0.0000  0.0000  0.0000
  o =  0.4293  v =  0.0000  0.0000  0.0000  0.0000  0.0000 -0.0014 -0.0019 -0.4323  0.0033 -0.9017      0.0000  0.0000  0.0000  0.0000  0.0000  0.0000  0.0000  0.0000  0.0000  0.0000
  o =  0.4293  v =  0.0000  0.0000  0.0000  0.0000  0.0000  0.0030 -0.0028  0.9017 -0.0003 -0.4323      0.0000  0.0000  0.0000  0.0000  0.0000  0.0000  0.0000  0.0000  0.0000  0.0000
  o =  0.9374  v =  0.0344  0.6893 -0.0002 -0.7237 -0.0037  0.0000  0.0000  0.0000  0.0000  0.0000      0.0000  0.0000  0.0000  0.0000  0.0000  0.0000  0.0000  0.0000  0.0000  0.0000
[...]
  0.000   0.000  -0.000  -0.000  -0.000  -0.000  -0.001  -0.000  -0.001   0.000   0.000   0.000   0.000   0.000   0.000   0.000
 -0.000  -0.000   0.000  -0.000   0.000   0.000   0.000   0.000  -0.000   0.000   0.000   0.000   0.000  -0.000  -0.000   0.000
  0.000  -0.000   0.000   0.000  -0.000   0.000   0.000  -0.000   0.000  -0.000  -0.000   0.000   0.000  -0.000   0.000   0.000
  0.000   0.000  -0.000  -0.000  -0.000  -0.000  -0.000  -0.001  -0.000  -0.001   0.000   0.000   0.000   0.000   0.000  -0.000
  0.000   0.000   0.000  -0.000   0.000  -0.001  -0.000  -0.000   0.000   0.001   0.001  -0.000  -0.001   0.000  -0.000  -0.000
  0.000  -0.011   0.000   0.000   0.000  -0.000  -0.000  -0.000   0.001   0.001  -0.000   0.001   0.000  -0.000  -0.000   0.000
  0.000   0.000   0.000   0.000  -0.000  -0.001  -0.000  -0.000   0.001  -0.000  -0.001  -0.000   0.000  -0.000   0.000   0.000
 -0.000  -0.000  -0.000  -0.000  -0.000   0.000   0.001   0.000   0.000  -0.000  -0.000  -0.000  -0.000  -0.000   0.000   0.000
  0.000   0.000  -0.000   0.000   0.000  -0.000  -0.000  -0.001   0.001  -0.000  -0.001  -0.000  -0.000  -0.000   0.000   0.000
 -0.000   0.000  -0.000  -0.000   0.000  -0.000   0.000   0.000   0.000   0.001   0.000  -0.001  -0.001   0.000  -0.000  -0.000
 -0.000  -0.000  -0.000   0.000  -0.000   0.000   0.000   0.001  -0.000   0.000  -0.001  -0.001  -0.001  -0.000  -0.000   0.000


------------------------ aborting loop because EDIFF is reached ----------------------------------------


 


 total charge     
 
# of ion       s       p       d       f       tot
--------------------------------------------------
    1        1.999   5.697   0.482   0.187   8.363
    2        1.999   5.697   0.482   0.187   8.365
    3        1.999   5.697   0.482   0.187   8.365
    4        1.999   5.697   0.482   0.187   8.363
    5        1.998   5.697   0.477   0.185   8.357
    6        1.998   5.697   0.477   0.185   8.357
    7        0.288   0.418   4.942   0.000   5.648
    8        0.343   0.544   4.864   0.000   5.750
    9        0.343   0.544   4.864   0.000   5.750
   10        0.358   0.578   4.846   0.000   5.781
   11        0.381   0.543   8.316   0.000   9.241
   12        0.381   0.543   8.316   0.000   9.241
   13        1.560   3.505   0.000   0.000   5.064
   14        1.565   3.490   0.000   0.000   5.055
   15        1.565   3.490   0.000   0.000   5.055
   16        1.560   3.505   0.000   0.000   5.064
   17        1.560   3.499   0.000   0.000   5.059
   18        1.560   3.499   0.000   0.000   5.059
   19        1.560   3.447   0.000   0.000   5.007
   20        1.564   3.451   0.000   0.000   5.015
   21        1.564   3.451   0.000   0.000   5.015
   22        1.560   3.447   0.000   0.000   5.007
   23        1.560   3.446   0.000   0.000   5.007
   24        1.560   3.446   0.000   0.000   5.007
   25        1.559   3.419   0.000   0.000   4.979
   26        1.563   3.433   0.000   0.000   4.996
   27        1.563   3.433   0.000   0.000   4.996
   28        1.559   3.419   0.000   0.000   4.979
   29        1.560   3.421   0.000   0.000   4.982
   30        1.560   3.421   0.000   0.000   4.982
--------------------------------------------------
tot         42.188  99.575  39.029   1.117 181.909

 


 magnetization (x)
 
# of ion       s       p       d       f       tot
--------------------------------------------------
    1        0.001   0.001   0.009   0.004   0.015
    2        0.001   0.001   0.011   0.006   0.019
    3        0.001   0.001   0.011   0.006   0.019
    4        0.001   0.001   0.009   0.004   0.015
    5        0.001   0.001   0.009   0.003   0.014
    6        0.001   0.001   0.009   0.003   0.014
    7        0.021   0.020   4.042   0.000   4.083
    8        0.025   0.036   3.443   0.000   3.504
    9        0.025   0.036   3.443   0.000   3.504
   10        0.025   0.040   3.189   0.000   3.254
   11        0.005  -0.005   1.704   0.000   1.704
   12        0.005  -0.005   1.704   0.000   1.704
   13        0.006   0.006   0.000   0.000   0.012
   14        0.007  -0.038   0.000   0.000  -0.031
   15        0.007  -0.038   0.000   0.000  -0.031
   16        0.006   0.006   0.000   0.000   0.012
   17        0.005  -0.005   0.000   0.000   0.000
   18        0.005  -0.005   0.000   0.000   0.000
   19        0.005  -0.002   0.000   0.000   0.003
   20        0.005  -0.037   0.000   0.000  -0.032
   21        0.005  -0.037   0.000   0.000  -0.032
   22        0.005  -0.002   0.000   0.000   0.003
   23        0.004  -0.010   0.000   0.000  -0.006
   24        0.004  -0.010   0.000   0.000  -0.006
   25        0.004  -0.010   0.000   0.000  -0.005
   26        0.004  -0.038   0.000   0.000  -0.034
   27        0.004  -0.038   0.000   0.000  -0.034
   28        0.004  -0.010   0.000   0.000  -0.005
   29        0.004  -0.016   0.000   0.000  -0.012
   30        0.004  -0.016   0.000   0.000  -0.012
--------------------------------------------------
tot          0.199  -0.173  17.583   0.027  17.636

 
    CHARGE:  cpu time    0.1085: real time    0.1087
    FORLOC:  cpu time    0.0138: real time    0.0138
    FORNL :  cpu time    0.5905: real time    0.5922
    STRESS:  cpu time    1.7788: real time    1.7845
    FORCOR:  cpu time    0.1145: real time    0.1148
    FORHAR:  cpu time    0.0239: real time    0.0241
    MIXING:  cpu time    0.0064: real time    0.0064
    OFIELD:  cpu time    0.0001: real time    0.0003

  FORCE on cell =-STRESS in cart. coord.  units (eV):
  Direction    XX          YY          ZZ          XY          YZ          ZX
  --------------------------------------------------------------------------------------
  Alpha Z   972.88165   972.88165   972.88165
  Ewald   -5010.36374 -5010.36372 -5010.36372   -25.74138   -25.74136   -25.74138
  Hartree  1089.22371  1089.22371  1089.22371   -26.17202   -26.17202   -26.17202
  E(xc)   -1025.62403 -1025.62404 -1025.62404     0.00550     0.00552     0.00550
  Local    -607.80442  -607.80506  -607.80506    51.97347    51.97407    51.97347
  n-local   400.32342   401.85709   404.63450    -1.54148     1.15648     0.21970
  augment   344.57304   344.57353   344.57353    -0.00747    -0.00797    -0.00747
  Kinetic  3848.58931  3838.91675  3814.23610   -11.67177     8.80679     2.96626
  Fock        0.00000     0.00000     0.00000     0.00000     0.00000     0.00000
  -------------------------------------------------------------------------------------
  Total      -0.92816    -0.92816    -0.92816     0.03678     0.03678     0.03678
  in kB      -4.17036    -4.17036    -4.17036     0.16525     0.16525     0.16525
  external pressure =       -4.17 kB  Pullay stress =        0.00 kB


 VOLUME and BASIS-vectors are now :
 -----------------------------------------------------------------------------
  energy-cutoff  :      520.00
  volume of cell :      356.58
      direct lattice vectors                 reciprocal lattice vectors
     3.902338410  0.000000000 -3.902338410     0.085418869  0.085418869 -0.170837738
    -3.902338410  3.902338410  0.000000000    -0.085418869  0.170837738 -0.085418869
     7.805307441  7.805307441  7.805307441     0.042705984  0.042705984  0.042705984

  length of vectors
     5.518739904  5.518739904 13.519189056     0.209232643  0.209232643  0.073968934


 FORCES acting on ions
    electron-ion (+dipol)            ewald-force                    non-local-force                 convergence-correction
 -----------------------------------------------------------------------------------------------
   0.590E+02 0.590E+02 0.590E+02   -.587E+02 -.587E+02 -.587E+02   -.250E+00 -.250E+00 -.250E+00   -.174E-01 -.174E-01 -.174E-01
   0.476E+02 0.476E+02 0.476E+02   -.472E+02 -.472E+02 -.472E+02   -.301E+00 -.301E+00 -.301E+00   -.150E-01 -.150E-01 -.150E-01
   -.476E+02 -.476E+02 -.476E+02   0.472E+02 0.472E+02 0.472E+02   0.301E+00 0.301E+00 0.301E+00   0.151E-01 0.151E-01 0.151E-01
   -.590E+02 -.590E+02 -.590E+02   0.587E+02 0.587E+02 0.587E+02   0.250E+00 0.250E+00 0.250E+00   0.173E-01 0.173E-01 0.173E-01
   -.164E+02 -.164E+02 -.164E+02   0.164E+02 0.164E+02 0.164E+02   0.525E-02 0.525E-02 0.525E-02   0.470E-02 0.470E-02 0.470E-02
   0.164E+02 0.164E+02 0.164E+02   -.164E+02 -.164E+02 -.164E+02   -.525E-02 -.525E-02 -.525E-02   -.470E-02 -.470E-02 -.470E-02
   -.465E-04 -.683E-04 -.683E-04   -.770E-04 0.655E-04 0.655E-04   -.152E-19 -.508E-20 -.169E-20   0.307E-05 0.300E-05 0.300E-05
   -.287E+02 -.287E+02 -.287E+02   0.285E+02 0.285E+02 0.285E+02   0.167E+00 0.167E+00 0.167E+00   0.160E-01 0.160E-01 0.160E-01
   0.287E+02 0.287E+02 0.287E+02   -.285E+02 -.285E+02 -.285E+02   -.167E+00 -.167E+00 -.167E+00   -.160E-01 -.160E-01 -.160E-01
   -.342E-04 -.611E-04 -.611E-04   -.942E-04 0.569E-04 0.569E-04   0.508E-20 -.508E-20 -.508E-20   0.260E-05 0.252E-05 0.252E-05
   0.194E+02 0.194E+02 0.194E+02   -.199E+02 -.199E+02 -.199E+02   0.551E+00 0.551E+00 0.551E+00   -.128E-01 -.128E-01 -.128E-01
   -.194E+02 -.194E+02 -.194E+02   0.199E+02 0.199E+02 0.199E+02   -.551E+00 -.551E+00 -.551E+00   0.128E-01 0.128E-01 0.128E-01
   -.207E+02 -.207E+02 -.629E+02   0.207E+02 0.207E+02 0.591E+02   -.431E-02 -.431E-02 0.385E+01   0.960E-02 0.960E-02 -.537E-02
   -.164E+02 -.164E+02 -.380E+02   0.165E+02 0.165E+02 0.405E+02   -.148E+00 -.148E+00 -.252E+01   0.693E-02 0.693E-02 0.400E-01
   0.164E+02 0.164E+02 0.380E+02   -.165E+02 -.165E+02 -.405E+02   0.148E+00 0.148E+00 0.252E+01   -.693E-02 -.693E-02 -.400E-01
   0.207E+02 0.207E+02 0.629E+02   -.207E+02 -.207E+02 -.591E+02   0.431E-02 0.431E-02 -.385E+01   -.960E-02 -.960E-02 0.537E-02
   0.568E+01 0.568E+01 -.177E+02   -.554E+01 -.554E+01 0.125E+02   -.133E+00 -.133E+00 0.517E+01   -.327E-02 -.327E-02 0.129E-02
   -.568E+01 -.568E+01 0.177E+02   0.554E+01 0.554E+01 -.125E+02   0.133E+00 0.133E+00 -.517E+01   0.327E-02 0.327E-02 -.129E-02
   -.207E+02 -.629E+02 -.207E+02   0.207E+02 0.591E+02 0.207E+02   -.431E-02 0.385E+01 -.431E-02   0.960E-02 -.537E-02 0.960E-02
   -.164E+02 -.380E+02 -.164E+02   0.165E+02 0.405E+02 0.165E+02   -.148E+00 -.252E+01 -.148E+00   0.693E-02 0.400E-01 0.693E-02
   0.164E+02 0.380E+02 0.164E+02   -.165E+02 -.405E+02 -.165E+02   0.148E+00 0.252E+01 0.148E+00   -.693E-02 -.400E-01 -.693E-02
   0.207E+02 0.629E+02 0.207E+02   -.207E+02 -.591E+02 -.207E+02   0.431E-02 -.385E+01 0.431E-02   -.960E-02 0.537E-02 -.960E-02
   0.568E+01 -.177E+02 0.568E+01   -.554E+01 0.125E+02 -.554E+01   -.133E+00 0.517E+01 -.133E+00   -.327E-02 0.129E-02 -.327E-02
   -.568E+01 0.177E+02 -.568E+01   0.554E+01 -.125E+02 0.554E+01   0.133E+00 -.517E+01 0.133E+00   0.327E-02 -.129E-02 0.327E-02
   -.629E+02 -.207E+02 -.207E+02   0.591E+02 0.207E+02 0.207E+02   0.385E+01 -.431E-02 -.431E-02   -.537E-02 0.960E-02 0.960E-02
   -.380E+02 -.164E+02 -.164E+02   0.405E+02 0.165E+02 0.165E+02   -.252E+01 -.148E+00 -.148E+00   0.400E-01 0.693E-02 0.693E-02
   0.380E+02 0.164E+02 0.164E+02   -.405E+02 -.165E+02 -.165E+02   0.252E+01 0.148E+00 0.148E+00   -.400E-01 -.693E-02 -.693E-02
   0.629E+02 0.207E+02 0.207E+02   -.591E+02 -.207E+02 -.207E+02   -.385E+01 0.431E-02 0.431E-02   0.537E-02 -.960E-02 -.960E-02
   -.177E+02 0.568E+01 0.568E+01   0.125E+02 -.554E+01 -.554E+01   0.517E+01 -.133E+00 -.133E+00   0.129E-02 -.327E-02 -.327E-02
   0.177E+02 -.568E+01 -.568E+01   -.125E+02 0.554E+01 0.554E+01   -.517E+01 0.133E+00 0.133E+00   -.129E-02 0.327E-02 0.327E-02
 -----------------------------------------------------------------------------------------------
   0.312E-02 0.380E-02 0.380E-02   0.142E-12 0.462E-13 0.746E-13   -.178E-14 -.261E-14 -.169E-14   -.858E-06 -.699E-06 -.699E-06
 
 
 POSITION                                       TOTAL-FORCE (eV/Angst)
 -----------------------------------------------------------------------------------
      7.83669      7.83669      3.93436         0.058368      0.058368      0.058368
      3.93603      7.83837      3.93603         0.093625      0.093625      0.093625
      3.86939      3.86939      3.86939        -0.093625     -0.093625     -0.093625
      3.87106      3.87106     -0.03128        -0.058368     -0.058368     -0.058368
     -0.00195      3.90039     -0.00194         0.012488      0.012488      0.012488
      0.00205      0.00205      0.00205        -0.012488     -0.012488     -0.012488
      5.85388      5.85388      1.95154        -0.000000     -0.000000     -0.000000
      1.94486      5.84720      1.94486        -0.031153     -0.031153     -0.031153
      5.86055      5.86055      5.86055         0.031153      0.031153      0.031153
      1.95122      1.95122     -1.95112        -0.000000     -0.000000     -0.000000
      5.85749      9.75983      5.85749         0.022275      0.022275      0.022275
      1.94792      1.94792      1.94792        -0.022275     -0.022275     -0.022275
      1.95539      5.85773      0.01874        -0.031606     -0.031606      0.004318
      1.95344      5.85578      3.86627        -0.032990     -0.032990      0.012876
      5.85197      5.85197      3.93914         0.032990      0.032990     -0.012876
      5.85002      9.75236      3.88434         0.031606      0.031606     -0.004318
      1.95143      1.95143     -3.85945         0.004562      0.004562      0.008346
      1.95101      1.95101     -0.04278        -0.004562     -0.004562     -0.008346
      1.95539      3.92107      1.95539        -0.031606      0.004318     -0.031606
      1.95344      7.76861      1.95344        -0.032990      0.012876     -0.032990
      5.85197      7.84148      1.94963         0.032990     -0.012876      0.032990
      5.85002      7.78668      5.85002         0.031606     -0.004318      0.031606
      1.95143      0.04289     -1.95091         0.004562      0.008346      0.004562
      1.95101      3.85956     -1.95133        -0.004562     -0.008346     -0.004562
      0.01874      5.85773      1.95539         0.004318     -0.031606     -0.031606
      3.86627      5.85578      1.95344         0.012876     -0.032990     -0.032990
      7.84148      5.85197      1.94963        -0.012876      0.032990      0.032990
      3.88434      9.75236      5.85002        -0.004318      0.031606      0.031606
      0.04289      1.95143     -1.95091         0.008346      0.004562      0.004562
      3.85956      1.95101     -1.95133        -0.008346     -0.004562     -0.004562
 -----------------------------------------------------------------------------------
    total drift:                                0.003117      0.003796      0.003796


--------------------------------------------------------------------------------------------------------



  FREE ENERGIE OF THE ION-ELECTRON SYSTEM (eV)
  ---------------------------------------------------
  free  energy   TOTEN  =      -226.87963285 eV

  energy  without entropy=     -226.87963285  energy(sigma->0) =     -226.87963285
 


--------------------------------------------------------------------------------------------------------


    POTLOK:  cpu time    0.1165: real time    0.1171


--------------------------------------------------------------------------------------------------------


     LOOP+:  cpu time   47.5937: real time   47.8051
    4ORBIT:  cpu time    0.0000: real time    0.0000
 


 total charge     
 
# of ion       s       p       d       f       tot
--------------------------------------------------
    1        1.999   5.697   0.482   0.187   8.363
    2        1.999   5.697   0.482   0.187   8.365
    3        1.999   5.697   0.482   0.187   8.365
    4        1.999   5.697   0.482   0.187   8.363
    5        1.998   5.697   0.477   0.185   8.357
    6        1.998   5.697   0.477   0.185   8.357
    7        0.288   0.418   4.942   0.000   5.648
    8        0.343   0.544   4.864   0.000   5.750
    9        0.343   0.544   4.864   0.000   5.750
   10        0.358   0.578   4.846   0.000   5.781
   11        0.381   0.543   8.316   0.000   9.241
   12        0.381   0.543   8.316   0.000   9.241
   13        1.560   3.505   0.000   0.000   5.064
   14        1.565   3.490   0.000   0.000   5.055
   15        1.565   3.490   0.000   0.000   5.055
   16        1.560   3.505   0.000   0.000   5.064
   17        1.560   3.499   0.000   0.000   5.059
   18        1.560   3.499   0.000   0.000   5.059
   19        1.560   3.447   0.000   0.000   5.007
   20        1.564   3.451   0.000   0.000   5.015
   21        1.564   3.451   0.000   0.000   5.015
   22        1.560   3.447   0.000   0.000   5.007
   23        1.560   3.446   0.000   0.000   5.007
   24        1.560   3.446   0.000   0.000   5.007
   25        1.559   3.419   0.000   0.000   4.979
   26        1.563   3.433   0.000   0.000   4.996
   27        1.563   3.433   0.000   0.000   4.996
   28        1.559   3.419   0.000   0.000   4.979
   29        1.560   3.421   0.000   0.000   4.982
   30        1.560   3.421   0.000   0.000   4.982
--------------------------------------------------
tot         42.188  99.575  39.029   1.117 181.909

 


 magnetization (x)
 
# of ion       s       p       d       f       tot
--------------------------------------------------
    1        0.001   0.001   0.009   0.004   0.015
    2        0.001   0.001   0.011   0.006   0.019
    3        0.001   0.001   0.011   0.006   0.019
    4        0.001   0.001   0.009   0.004   0.015
    5        0.001   0.001   0.009   0.003   0.014
    6        0.001   0.001   0.009   0.003   0.014
    7        0.021   0.020   4.042   0.000   4.083
    8        0.025   0.036   3.443   0.000   3.504
    9        0.025   0.036   3.443   0.000   3.504
   10        0.025   0.040   3.189   0.000   3.254
   11        0.005  -0.005   1.704   0.000   1.704
   12        0.005  -0.005   1.704   0.000   1.704
   13        0.006   0.006   0.000   0.000   0.012
   14        0.007  -0.038   0.000   0.000  -0.031
   15        0.007  -0.038   0.000   0.000  -0.031
   16        0.006   0.006   0.000   0.000   0.012
   17        0.005  -0.005   0.000   0.000   0.000
   18        0.005  -0.005   0.000   0.000   0.000
   19        0.005  -0.002   0.000   0.000   0.003
   20        0.005  -0.037   0.000   0.000  -0.032
   21        0.005  -0.037   0.000   0.000  -0.032
   22        0.005  -0.002   0.000   0.000   0.003
   23        0.004  -0.010   0.000   0.000  -0.006
   24        0.004  -0.010   0.000   0.000  -0.006
   25        0.004  -0.010   0.000   0.000  -0.005
   26        0.004  -0.038   0.000   0.000  -0.034
   27        0.004  -0.038   0.000   0.000  -0.034
   28        0.004  -0.010   0.000   0.000  -0.005
   29        0.004  -0.016   0.000   0.000  -0.012
   30        0.004  -0.016   0.000   0.000  -0.012
--------------------------------------------------
tot          0.199  -0.173  17.583   0.027  17.636

 
 BZINTS: Fermi energy:  7.818754;222.000000 electrons
         Band energy:-377.336927;  BLOECHL correction:  0.000000

 total amount of memory used by VASP MPI-rank0    62290. kBytes
=======================================================================

   base      :      30000. kBytes
   nonlr-proj:       8373. kBytes
   fftplans  :       3626. kBytes
   grid      :      10597. kBytes
   one-center:        294. kBytes
   wavefun   :       9400. kBytes
 
  
  
 General timing and accounting informations for this job:
 ========================================================
  
                  Total CPU time used (sec):       55.113
                            User time (sec):       51.410
                          System time (sec):        3.703
                         Elapsed time (sec):       55.478
  
                   Maximum memory used (kb):      104204.
                   Average memory used (kb):           0.
  
                          Minor page faults:        44071
                          Major page faults:            0
                 Voluntary context switches:         1499
