       N       E                     dE             d eps       ncg     rms          rms(c)
DAV:   1     0.357105105492E+04    0.35711E+04   -0.78783E+04  7514   0.245E+03
DAV:   2     0.124045125933E+04   -0.23306E+04   -0.20971E+04  7792   0.634E+02
DAV:   3     0.273563481684E+03   -0.96689E+03   -0.86426E+03  7760   0.327E+02
DAV:   4    -0.157717168353E+03   -0.43128E+03   -0.40623E+03 11232   0.179E+02
DAV:   5    -0.249106069696E+03   -0.91389E+02   -0.87609E+02 12762   0.985E+01    0.765E+01
RMM:   6    -0.223410605462E+03    0.25695E+02   -0.72965E+02 11718   0.107E+02    0.103E+02
RMM:   7    -0.224846236185E+03   -0.14356E+01   -0.15170E+02 12480   0.350E+01    0.477E+01
RMM:   8    -0.217419875859E+03    0.74264E+01   -0.70033E+01  9301   0.414E+01    0.257E+01
RMM:   9    -0.220265624821E+03   -0.28457E+01   -0.33346E+01 11517   0.169E+01    0.204E+01
RMM:  10    -0.220500771629E+03   -0.23515E+00   -0.65603E+00 12170   0.781E+00    0.138E+01
RMM:  11    -0.220409634406E+03    0.91137E-01   -0.29508E+00 12517   0.476E+00    0.665E+00
RMM:  12    -0.220376630501E+03    0.33004E-01   -0.16583E+00 12257   0.388E+00    0.508E+00
RMM:  13    -0.220425426508E+03   -0.48796E-01   -0.66118E-01 12421   0.193E+00    0.295E+00
RMM:  14    -0.220451928803E+03   -0.26502E-01   -0.20968E-01 12047   0.132E+00    0.168E+00
RMM:  15    -0.220460297124E+03   -0.83683E-02   -0.95141E-02 11282   0.757E-01    0.931E-01
RMM:  16    -0.220461416941E+03   -0.11198E-02   -0.36168E-02 10031   0.569E-01    0.613E-01
RMM:  17    -0.220462863686E+03   -0.14467E-02   -0.31531E-02  9820   0.480E-01    0.253E-01
RMM:  18    -0.220463977238E+03   -0.11136E-02   -0.12931E-02  7685   0.375E-01    0.112E-01
RMM:  19    -0.220464648622E+03   -0.67138E-03   -0.79758E-03  6923   0.311E-01
   1 F= -.22046465E+03 E0= -.22046465E+03  d E =0.000000E+00  mag=    14.9929
