       N       E                     dE             d eps       ncg     rms          rms(c)
DAV:   1     0.224198550062E+04    0.22420E+04   -0.52929E+04  3328   0.240E+03
DAV:   2     0.706638841158E+03   -0.15353E+04   -0.13848E+04  3496   0.604E+02
DAV:   3     0.971249979229E+02   -0.60951E+03   -0.56190E+03  3848   0.316E+02
DAV:   4    -0.132373492163E+03   -0.22950E+03   -0.21720E+03  5112   0.161E+02
DAV:   5    -0.175015393176E+03   -0.42642E+02   -0.41146E+02  5552   0.764E+01    0.553E+01
RMM:   6    -0.156231862347E+03    0.18784E+02   -0.46437E+02  5037   0.965E+01    0.849E+01
RMM:   7    -0.152259849170E+03    0.39720E+01   -0.66909E+01  4913   0.372E+01    0.309E+01
RMM:   8    -0.151024995994E+03    0.12349E+01   -0.24654E+01  4206   0.279E+01    0.161E+01
RMM:   9    -0.152680102602E+03   -0.16551E+01   -0.20216E+01  5015   0.144E+01    0.104E+01
RMM:  10    -0.153002361434E+03   -0.32226E+00   -0.49488E+00  5384   0.697E+00    0.445E+00
RMM:  11    -0.152997710722E+03    0.46507E-02   -0.21760E+00  5143   0.577E+00    0.225E+00
RMM:  12    -0.153070692347E+03   -0.72982E-01   -0.86080E-01  5416   0.224E+00    0.120E+00
RMM:  13    -0.153084613076E+03   -0.13921E-01   -0.24484E-01  5228   0.168E+00    0.634E-01
RMM:  14    -0.153094610376E+03   -0.99973E-02   -0.95095E-02  4719   0.797E-01    0.356E-01
RMM:  15    -0.153098718581E+03   -0.41082E-02   -0.40401E-02  3829   0.655E-01    0.246E-01
RMM:  16    -0.153101637767E+03   -0.29192E-02   -0.27893E-02  3504   0.434E-01    0.188E-01
RMM:  17    -0.153103015355E+03   -0.13776E-02   -0.15177E-02  3256   0.439E-01    0.104E-01
RMM:  18    -0.153103901816E+03   -0.88646E-03   -0.13209E-02  3123   0.356E-01    0.454E-02
RMM:  19    -0.153104176975E+03   -0.27516E-03   -0.90779E-03  3011   0.363E-01
   1 F= -.15310418E+03 E0= -.15310418E+03  d E =0.000000E+00  mag=    13.0000
