 vasp.5.4.4.18Apr17-6-g9f103f2a35 (build Oct 03 2018 13:58:34) complex          
  
 executed on             LinuxIFC date 2019.06.04  01:18:29
 running on   40 total cores
 distrk:  each k-point on   20 cores,    2 groups
 distr:  one band on NCORES_PER_BAND=  10 cores,    2 groups


--------------------------------------------------------------------------------------------------------


 INCAR:
 POTCAR:    PAW_PBE La 06Sep2000                  
 POTCAR:    PAW_PBE Mn 06Sep2000                  
 POTCAR:    PAW_PBE Ni 02Aug2007                  
 POTCAR:    PAW_PBE O 08Apr2002                   

 ----------------------------------------------------------------------------- 
|                                                                             |
|           W    W    AA    RRRRR   N    N  II  N    N   GGGG   !!!           |
|           W    W   A  A   R    R  NN   N  II  NN   N  G    G  !!!           |
|           W    W  A    A  R    R  N N  N  II  N N  N  G       !!!           |
|           W WW W  AAAAAA  RRRRR   N  N N  II  N  N N  G  GGG   !            |
|           WW  WW  A    A  R   R   N   NN  II  N   NN  G    G                |
|           W    W  A    A  R    R  N    N  II  N    N   GGGG   !!!           |
|                                                                             |
|      You have enabled k-point parallelism (KPAR>1).                         |
|      This developmental code was originally  written by Paul Kent at ORNL,  |
|      and carefully double checked in Vienna.                                |
|      GW as well as linear response parallelism added by Martijn Marsman     |
|      and Georg Kresse.                                                      |
|      Carefully verify results versus KPAR=1.                                |
|      Report problems to Paul Kent and Vienna.                               |
|                                                                             |
 ----------------------------------------------------------------------------- 

 POTCAR:    PAW_PBE La 06Sep2000                  
   VRHFIN =La : [core=Kr4d]                                                     
   LEXCH  = PE                                                                  
   EATOM  =   865.9763 eV,   63.6475 Ry                                         
                                                                                
   TITEL  = PAW_PBE La 06Sep2000                                                
   LULTRA =        F    use ultrasoft PP ?                                      
   IUNSCR =        1    unscreen: 0-lin 1-nonlin 2-no                           
   RPACOR =    2.300    partial core radius                                     
   POMASS =  138.900; ZVAL   =   11.000    mass and valenz                      
   RCORE  =    2.800    outmost cutoff radius                                   
   RWIGS  =    2.900; RWIGS  =    1.535    wigner-seitz radius (au A)           
   ENMAX  =  219.292; ENMIN  =  164.469 eV                                      
   RCLOC  =    1.601    cutoff for local pot                                    
   LCOR   =        T    correct aug charges                                     
   LPAW   =        T    paw PP                                                  
   EAUG   =  583.575                                                            
   DEXC   =    0.000                                                            
   RMAX   =    2.853    core radius for proj-oper                               
   RAUG   =    1.300    factor for augmentation sphere                          
   RDEP   =    2.802    radius for radial grids                                 
   RDEPT  =    2.156    core radius for aug-charge                              
                                                                                
   Atomic configuration                                                         
   14 entries                                                                   
     n  l   j            E        occ.                                          
     1  0  0.50    -38741.0879   2.0000                                         
     2  0  0.50     -6166.6801   2.0000                                         
     2  1  1.50     -5526.1593   6.0000                                         
     3  0  0.50     -1319.0200   2.0000                                         
     3  1  1.50     -1114.5963   6.0000                                         
     3  2  2.50      -821.1793  10.0000                                         
     4  0  0.50      -266.3851   2.0000                                         
     4  1  1.50      -199.9276   6.0000                                         
     4  2  2.50      -103.8239  10.0000                                         
     5  0  0.50       -38.9172   2.0000                                         
     6  0  0.50        -3.6792   2.0000                                         
     5  1  1.50       -22.3948   6.0000                                         
     5  2  2.50        -3.0911   0.9999                                         
     4  3  2.50        -4.3603   0.0001                                         
   Description                                                                  
     l       E           TYP  RCUT    TYP  RCUT                                 
     0    -38.9171645     23  2.800                                             
     0     -3.6792381     23  2.800                                             
     1    -22.3948300     23  2.500                                             
     1     27.2116520     23  2.500                                             
     2     -3.0910934     23  2.500                                             
     2      1.0119135     23  2.500                                             
     3     -4.3602911     23  2.800                                             
     3     -5.7208737     23  2.800                                             
  local pseudopotential read in
  partial core-charges read in
  partial kinetic energy density read in
  atomic valenz-charges read in
  non local Contribution for L=           0  read in
    real space projection operators read in
  non local Contribution for L=           0  read in
    real space projection operators read in
  non local Contribution for L=           1  read in
    real space projection operators read in
  non local Contribution for L=           1  read in
    real space projection operators read in
  non local Contribution for L=           2  read in
    real space projection operators read in
  non local Contribution for L=           2  read in
    real space projection operators read in
  non local Contribution for L=           3  read in
    real space projection operators read in
  non local Contribution for L=           3  read in
    real space projection operators read in
    PAW grid and wavefunctions read in
 
   number of l-projection  operators is LMAX  =           8
   number of lm-projection operators is LMMAX =          32
 
 POTCAR:    PAW_PBE Mn 06Sep2000                  
   VRHFIN =Mn: d6 s1                                                            
   LEXCH  = PE                                                                  
   EATOM  =   416.7541 eV,   30.6306 Ry                                         
                                                                                
   TITEL  = PAW_PBE Mn 06Sep2000                                                
   LULTRA =        F    use ultrasoft PP ?                                      
   IUNSCR =        1    unscreen: 0-lin 1-nonlin 2-no                           
   RPACOR =    2.000    partial core radius                                     
   POMASS =   54.938; ZVAL   =    7.000    mass and valenz                      
   RCORE  =    2.300    outmost cutoff radius                                   
   RWIGS  =    2.500; RWIGS  =    1.323    wigner-seitz radius (au A)           
   ENMAX  =  269.864; ENMIN  =  202.398 eV                                      
   RCLOC  =    1.725    cutoff for local pot                                    
   LCOR   =        T    correct aug charges                                     
   LPAW   =        T    paw PP                                                  
   EAUG   =  500.711                                                            
   DEXC   =    0.000                                                            
   RMAX   =    2.343    core radius for proj-oper                               
   RAUG   =    1.300    factor for augmentation sphere                          
   RDEP   =    2.338    radius for radial grids                                 
   RDEPT  =    1.911    core radius for aug-charge                              
                                                                                
   Atomic configuration                                                         
    9 entries                                                                   
     n  l   j            E        occ.                                          
     1  0  0.50     -6424.8288   2.0000                                         
     2  0  0.50      -739.1154   2.0000                                         
     2  1  1.50      -625.3949   6.0000                                         
     3  0  0.50       -81.6100   2.0000                                         
     3  1  1.50       -50.4667   6.0000                                         
     3  2  2.50        -3.3745   6.0000                                         
     4  0  0.50        -4.1331   1.0000                                         
     4  1  0.50        -4.0817   0.0000                                         
     4  3  2.50        -1.3606   0.0000                                         
   Description                                                                  
     l       E           TYP  RCUT    TYP  RCUT                                 
     2     -3.3744664     23  2.300                                             
     2     -4.7350490     23  2.300                                             
     0     -4.1331408     23  2.300                                             
     0      7.6656614     23  2.300                                             
     1     -2.7211652     23  2.300                                             
     1     20.4087390     23  2.300                                             
  local pseudopotential read in
  partial core-charges read in
  partial kinetic energy density read in
  atomic valenz-charges read in
  non local Contribution for L=           2  read in
    real space projection operators read in
  non local Contribution for L=           2  read in
    real space projection operators read in
  non local Contribution for L=           0  read in
    real space projection operators read in
  non local Contribution for L=           0  read in
    real space projection operators read in
  non local Contribution for L=           1  read in
    real space projection operators read in
  non local Contribution for L=           1  read in
    real space projection operators read in
    PAW grid and wavefunctions read in
 
   number of l-projection  operators is LMAX  =           6
   number of lm-projection operators is LMMAX =          18
 
 POTCAR:    PAW_PBE Ni 02Aug2007                  
   VRHFIN =Ni:                                                                  
   LEXCH  = PE                                                                  
   EATOM  =  1077.6739 eV,   79.2068 Ry                                         
                                                                                
   TITEL  = PAW_PBE Ni 02Aug2007                                                
   LULTRA =        F    use ultrasoft PP ?                                      
   IUNSCR =        1    unscreen: 0-lin 1-nonlin 2-no                           
   RPACOR =    2.000    partial core radius                                     
   POMASS =   58.690; ZVAL   =   10.000    mass and valenz                      
   RCORE  =    2.300    outmost cutoff radius                                   
   RWIGS  =    2.430; RWIGS  =    1.286    wigner-seitz radius (au A)           
   ENMAX  =  269.532; ENMIN  =  202.149 eV                                      
   RCLOC  =    1.201    cutoff for local pot                                    
   LCOR   =        T    correct aug charges                                     
   LPAW   =        T    paw PP                                                  
   EAUG   =  544.565                                                            
   DEXC   =    0.000                                                            
   RMAX   =    2.357    core radius for proj-oper                               
   RAUG   =    1.300    factor for augmentation sphere                          
   RDEP   =    2.390    radius for radial grids                                 
   RDEPT  =    1.838    core radius for aug-charge                              
                                                                                
   Atomic configuration                                                         
    9 entries                                                                   
     n  l   j            E        occ.                                          
     1  0  0.50     -8206.4253   2.0000                                         
     2  0  0.50      -976.1748   2.0000                                         
     2  1  1.50      -839.0571   6.0000                                         
     3  0  0.50      -105.9991   2.0000                                         
     3  1  1.50       -66.4603   6.0000                                         
     3  2  2.50        -4.6458   9.0000                                         
     4  0  0.50        -4.4926   1.0000                                         
     4  1  1.50        -4.0817   0.0000                                         
     4  3  2.50        -1.3606   0.0000                                         
   Description                                                                  
     l       E           TYP  RCUT    TYP  RCUT                                 
     2     -4.6457903     23  2.300                                             
     2     -6.0063729     23  2.300                                             
     0     -4.4925590     23  2.300                                             
     0      5.0102601     23  2.300                                             
     1     -2.7211652     23  2.300                                             
     1     16.5183231     23  2.300                                             
  local pseudopotential read in
  partial core-charges read in
  partial kinetic energy density read in
  atomic valenz-charges read in
  non local Contribution for L=           2  read in
    real space projection operators read in
  non local Contribution for L=           2  read in
    real space projection operators read in
  non local Contribution for L=           0  read in
    real space projection operators read in
  non local Contribution for L=           0  read in
    real space projection operators read in
  non local Contribution for L=           1  read in
    real space projection operators read in
  non local Contribution for L=           1  read in
    real space projection operators read in
    PAW grid and wavefunctions read in
 
   number of l-projection  operators is LMAX  =           6
   number of lm-projection operators is LMMAX =          18
 
 POTCAR:    PAW_PBE O 08Apr2002                   
   VRHFIN =O: s2p4                                                              
   LEXCH  = PE                                                                  
   EATOM  =   432.3788 eV,   31.7789 Ry                                         
                                                                                
   TITEL  = PAW_PBE O 08Apr2002                                                 
   LULTRA =        F    use ultrasoft PP ?                                      
   IUNSCR =        1    unscreen: 0-lin 1-nonlin 2-no                           
   RPACOR =    1.200    partial core radius                                     
   POMASS =   16.000; ZVAL   =    6.000    mass and valenz                      
   RCORE  =    1.520    outmost cutoff radius                                   
   RWIGS  =    1.550; RWIGS  =    0.820    wigner-seitz radius (au A)           
   ENMAX  =  400.000; ENMIN  =  300.000 eV                                      
   ICORE  =        2    local potential                                         
   LCOR   =        T    correct aug charges                                     
   LPAW   =        T    paw PP                                                  
   EAUG   =  605.392                                                            
   DEXC   =    0.000                                                            
   RMAX   =    1.553    core radius for proj-oper                               
   RAUG   =    1.300    factor for augmentation sphere                          
   RDEP   =    1.550    radius for radial grids                                 
   RDEPT  =    1.329    core radius for aug-charge                              
                                                                                
   Atomic configuration                                                         
    4 entries                                                                   
     n  l   j            E        occ.                                          
     1  0  0.50      -514.6923   2.0000                                         
     2  0  0.50       -23.9615   2.0000                                         
     2  1  0.50        -9.0305   4.0000                                         
     3  2  1.50        -9.5241   0.0000                                         
   Description                                                                  
     l       E           TYP  RCUT    TYP  RCUT                                 
     0    -23.9615318     23  1.200                                             
     0     -9.5240782     23  1.200                                             
     1     -9.0304911     23  1.520                                             
     1      8.1634956     23  1.520                                             
     2     -9.5240782      7  1.500                                             
  local pseudopotential read in
  partial core-charges read in
  partial kinetic energy density read in
  kinetic energy density of atom read in
  atomic valenz-charges read in
  non local Contribution for L=           0  read in
    real space projection operators read in
  non local Contribution for L=           0  read in
    real space projection operators read in
  non local Contribution for L=           1  read in
    real space projection operators read in
  non local Contribution for L=           1  read in
    real space projection operators read in
    PAW grid and wavefunctions read in
 
   number of l-projection  operators is LMAX  =           4
   number of lm-projection operators is LMMAX =           8
 
 Optimization of the real space projectors (new method)

 maximal supplied QI-value         = 13.42
 optimisation between [QCUT,QGAM] = [ 11.67, 23.35] = [ 38.16,152.62] Ry 
 Optimized for a Real-space Cutoff    1.63 Angstroem

   l    n(q)    QCUT    max X(q) W(low)/X(q) W(high)/X(q)  e(spline) 
   0     11    11.673    13.882    0.27E-04    0.79E-05    0.11E-06
   0     11    11.673    12.184    0.39E-04    0.13E-04    0.19E-06
   1     11    11.673     4.523    0.73E-05    0.76E-05    0.12E-06
   1     11    11.673     4.424    0.87E-05    0.13E-04    0.19E-06
   2     10    11.673    52.481    0.65E-04    0.36E-04    0.18E-06
   2     10    11.673    38.501    0.61E-04    0.33E-04    0.17E-06
   3     10    11.673    65.631    0.17E-03    0.14E-03    0.37E-06
   3     10    11.673    56.854    0.17E-03    0.14E-03    0.37E-06
 Optimization of the real space projectors (new method)

 maximal supplied QI-value         = 16.25
 optimisation between [QCUT,QGAM] = [ 11.54, 23.24] = [ 37.28,151.24] Ry 
 Optimized for a Real-space Cutoff    1.53 Angstroem

   l    n(q)    QCUT    max X(q) W(low)/X(q) W(high)/X(q)  e(spline) 
   2     10    11.539   110.144    0.12E-03    0.13E-03    0.25E-06
   2     10    11.539   103.200    0.12E-03    0.13E-03    0.25E-06
   0     11    11.539    68.437    0.46E-04    0.21E-04    0.32E-06
   0     11    11.539    33.971    0.37E-04    0.19E-04    0.29E-06
   1     10    11.539    17.065    0.51E-04    0.22E-04    0.13E-06
   1     10    11.539    12.540    0.41E-04    0.18E-04    0.11E-06
 Optimization of the real space projectors (new method)

 maximal supplied QI-value         = 16.25
 optimisation between [QCUT,QGAM] = [ 11.54, 23.24] = [ 37.28,151.24] Ry 
 Optimized for a Real-space Cutoff    1.45 Angstroem

   l    n(q)    QCUT    max X(q) W(low)/X(q) W(high)/X(q)  e(spline) 
   2      9    11.539    60.317    0.19E-03    0.47E-04    0.16E-06
   2      9    11.539    55.921    0.19E-03    0.48E-04    0.16E-06
   0     10    11.539    51.690    0.80E-04    0.50E-04    0.24E-06
   0     10    11.539    30.015    0.73E-04    0.45E-04    0.22E-06
   1     10    11.539    18.849    0.87E-04    0.16E-03    0.71E-07
   1     10    11.539    14.624    0.73E-04    0.13E-03    0.64E-07
 Optimization of the real space projectors (new method)

 maximal supplied QI-value         = 24.76
 optimisation between [QCUT,QGAM] = [ 11.64, 23.27] = [ 37.91,151.63] Ry 
 Optimized for a Real-space Cutoff    1.14 Angstroem

   l    n(q)    QCUT    max X(q) W(low)/X(q) W(high)/X(q)  e(spline) 
   0      8    11.635    20.381    0.10E-03    0.33E-03    0.24E-06
   0      8    11.635    15.268    0.11E-03    0.35E-03    0.26E-06
   1      7    11.635     5.964    0.24E-03    0.31E-03    0.30E-06
   1      7    11.635     5.382    0.22E-03    0.25E-03    0.26E-06
  PAW_PBE La 06Sep2000                  :
 energy of atom  1       EATOM= -865.9763
 kinetic energy error for atom=    0.0009 (will be added to EATOM!!)
  PAW_PBE Mn 06Sep2000                  :
 energy of atom  2       EATOM= -416.7541
 kinetic energy error for atom=    0.0024 (will be added to EATOM!!)
  PAW_PBE Ni 02Aug2007                  :
 energy of atom  3       EATOM=-1077.6739
 kinetic energy error for atom=    0.0030 (will be added to EATOM!!)
  PAW_PBE O 08Apr2002                   :
 energy of atom  4       EATOM= -432.3788
 kinetic energy error for atom=    0.0208 (will be added to EATOM!!)
 
 
 POSCAR: SCEL6_3_2_1_0_1_0/6                     
  positions in direct lattice
  velocities in cartesian coordinates
 exchange correlation table for  LEXCH =        8
   RHO(1)=    0.500       N(1)  =     2000
   RHO(2)=  100.500       N(2)  =     4000
 


--------------------------------------------------------------------------------------------------------


 ion  position               nearest neighbor table
   1  0.333  0.506  0.667-  30 2.70  14 2.70  16 2.70  26 2.70  23 2.73  23 2.73  21 2.73  19 2.73
                            27 2.77  17 2.77  13 2.77  29 2.77   9 3.32   9 3.32  12 3.33  10 3.33
   2  0.668  0.992  0.337-  16 2.68  26 2.68  20 2.70  28 2.71  18 2.71  22 2.73  22 2.73  24 2.75
                            13 2.77  29 2.77  25 2.80  15 2.80   9 3.29  10 3.31  10 3.31  12 3.33
   3  0.998  0.508  0.997-  14 2.68  30 2.68  23 2.70  18 2.71  28 2.71  21 2.73  21 2.73  19 2.75
                            17 2.77  27 2.77  15 2.80  25 2.80   9 3.29  12 3.31  12 3.31  10 3.33
   4  0.333  0.994  0.667-  30 2.70  14 2.70  16 2.70  26 2.70  20 2.73  20 2.73  24 2.73  22 2.73
                            27 2.77  17 2.77  13 2.77  29 2.77   9 3.32   9 3.32  12 3.33  10 3.33
   5  0.668  0.508  0.337-  16 2.68  26 2.68  23 2.70  28 2.71  18 2.71  19 2.73  19 2.73  21 2.75
                            13 2.77  29 2.77  25 2.80  15 2.80   9 3.29  10 3.31  10 3.31  12 3.33
   6  0.998  0.992  0.997-  14 2.68  30 2.68  20 2.70  18 2.71  28 2.71  24 2.73  24 2.73  22 2.75
                            17 2.77  27 2.77  15 2.80  25 2.80   9 3.29  12 3.31  12 3.31  10 3.33
   7  0.167  0.250  0.335-  29 1.88  13 1.88  22 1.90  19 1.90  15 1.94  25 1.94   1 3.37   4 3.37
                             2 3.39   5 3.39   2 3.39   5 3.39   3 3.42   6 3.42
   8  0.499  0.250  0.999-  27 1.88  17 1.88  24 1.90  21 1.90  25 1.94  15 1.94   1 3.37   4 3.37
                             3 3.39   6 3.39   3 3.39   6 3.39   5 3.42   2 3.42
   9  0.833  0.750  0.667-  20 1.92  23 1.92  14 1.94  30 1.94  26 1.94  16 1.94   3 3.29   6 3.29
                             5 3.29   2 3.29   1 3.32   4 3.32   1 3.32   4 3.32
  10  0.166  0.750  0.333-  18 1.92  28 1.92  26 1.92  16 1.92  19 1.99  22 1.99   2 3.31   5 3.31
                             2 3.31   5 3.31   4 3.33   1 3.33   3 3.33   6 3.33
  11  0.833  0.250  0.667-  20 1.96  23 1.96  17 1.97  27 1.97  29 1.97  13 1.97   3 3.36   6 3.36
                             5 3.36   2 3.36   1 3.38   4 3.38   1 3.38   4 3.38
  12  0.500  0.750  0.001-  28 1.92  18 1.92  30 1.92  14 1.92  21 1.99  24 1.99   3 3.31   6 3.31
                             3 3.31   6 3.31   4 3.33   1 3.33   5 3.33   2 3.33
  13  0.003  0.250  0.496-   7 1.88  11 1.97   2 2.77   5 2.77   4 2.77   1 2.77
  14  0.666  0.750  0.834-  12 1.92   9 1.94   3 2.68   6 2.68   4 2.70   1 2.70
  15  0.333  0.250  0.167-   7 1.94   8 1.94   2 2.80   5 2.80   3 2.80   6 2.80
  16  0.001  0.750  0.499-  10 1.92   9 1.94   2 2.68   5 2.68   4 2.70   1 2.70
  17  0.664  0.250  0.837-   8 1.88  11 1.97   3 2.77   6 2.77   4 2.77   1 2.77
  18  0.333  0.750  0.167-  10 1.92  12 1.92   2 2.71   5 2.71   3 2.71   6 2.71
  19  0.167  0.494  0.333-   7 1.90  10 1.99   5 2.73   5 2.73   1 2.73   3 2.75
  20  0.833  0.997  0.667-   9 1.92  11 1.96   6 2.70   2 2.70   4 2.73   4 2.73
  21  0.500  0.494  0.000-   8 1.90  12 1.99   3 2.73   3 2.73   1 2.73   5 2.75
  22  0.167  0.006  0.333-   7 1.90  10 1.99   2 2.73   2 2.73   4 2.73   6 2.75
  23  0.833  0.503  0.667-   9 1.92  11 1.96   3 2.70   5 2.70   1 2.73   1 2.73
  24  0.500  0.006  0.000-   8 1.90  12 1.99   6 2.73   6 2.73   4 2.73   2 2.75
  25  0.833  0.250  0.167-   7 1.94   8 1.94   2 2.80   5 2.80   3 2.80   6 2.80
  26  0.499  0.750  0.499-  10 1.92   9 1.94   2 2.68   5 2.68   4 2.70   1 2.70
  27  0.174  0.250  0.837-   8 1.88  11 1.97   3 2.77   6 2.77   4 2.77   1 2.77
  28  0.833  0.750  0.167-  12 1.92  10 1.92   2 2.71   5 2.71   3 2.71   6 2.71
  29  0.493  0.250  0.496-   7 1.88  11 1.97   2 2.77   5 2.77   4 2.77   1 2.77
  30  0.168  0.750  0.834-  12 1.92   9 1.94   3 2.68   6 2.68   4 2.70   1 2.70
 
  LATTYP: Found a base centered orthorhombic cell.
 ALAT       =     5.4529720662
 B/A-ratio  =     3.0011267876
 C/A-ratio  =     1.4248275734
  
  Lattice vectors:
  
 A1 = (   3.8580058832,   0.0000000000,  -7.7138393992)
 A2 = (  -7.7138394087,   0.0000000000,   3.8580058735)
 A3 = (   0.0000000000,   7.7695449569,   0.0000000000)


Analysis of symmetry for initial positions (statically):
=====================================================================
 Subroutine PRICEL returns:
 Original cell was already a primitive cell.
 

 Routine SETGRP: Setting up the symmetry group for a 
 base centered orthorhombic supercell.


 Subroutine GETGRP returns: Found  8 space group operations
 (whereof  2 operations were pure point group operations)
 out of a pool of  8 trial point group operations.


The static configuration has the point symmetry C_1h.
 The point group associated with its full space group is D_2h.


Analysis of symmetry for dynamics (positions and initial velocities):
=====================================================================
 Subroutine PRICEL returns:
 Original cell was already a primitive cell.
 

 Routine SETGRP: Setting up the symmetry group for a 
 base centered orthorhombic supercell.


 Subroutine GETGRP returns: Found  8 space group operations
 (whereof  2 operations were pure point group operations)
 out of a pool of  8 trial point group operations.


The dynamic configuration has the point symmetry C_1h.
 The point group associated with its full space group is D_2h.


Analysis of structural, dynamic, and magnetic symmetry:
=====================================================================
 Subroutine PRICEL returns:
 Original cell was already a primitive cell.
 

 Routine SETGRP: Setting up the symmetry group for a 
 base centered orthorhombic supercell.


 Subroutine GETGRP returns: Found  8 space group operations
 (whereof  2 operations were pure point group operations)
 out of a pool of  8 trial point group operations.


The magnetic configuration has the point symmetry C_1h.
 The point group associated with its full space group is D_2h.


 Subroutine INISYM returns: Found  8 space group operations
 (whereof  2 operations are pure point group operations),
 and found     1 'primitive' translations

 
 
 KPOINTS: Automatic mesh                          

Automatic generation of k-mesh.
 generate k-points for:    4    3    2
Space group operators:
 irot       det(A)        alpha          n_x          n_y          n_z        tau_x        tau_y        tau_z
    1     1.000000     0.000000     1.000000     0.000000     0.000000     0.000000     0.000000     0.000000
    2    -1.000000   180.000000    -0.707107     0.000000    -0.707107     0.000000     0.000000     0.000000
    3    -1.000000     0.000000     1.000000     0.000000     0.000000    -0.333333    -0.500000     0.333333
    4     1.000000   180.000000     0.000000     1.000000     0.000000    -0.333333     0.000000     0.333333
    5    -1.000000   180.000000     0.000000     1.000000     0.000000     0.000000    -0.500000     0.000000
    6     1.000000   180.000000     0.707107     0.000000    -0.707107     0.000000    -0.500000     0.000000
    7    -1.000000   180.000000     0.707107     0.000000    -0.707107    -0.333333     0.000000     0.333333
    8     1.000000   180.000000    -0.707107     0.000000    -0.707107    -0.333333    -0.500000     0.333333
 
 Subroutine IBZKPT returns following result:
 ===========================================
 
 Found     10 irreducible k-points:
 
 Following reciprocal coordinates:
            Coordinates               Weight
  0.000000  0.000000  0.000000      1.000000
  0.250000  0.000000  0.000000      2.000000
  0.500000  0.000000  0.000000      2.000000
  0.000000  0.333333  0.000000      2.000000
  0.250000  0.333333  0.000000      4.000000
  0.500000  0.333333  0.000000      4.000000
  0.000000  0.000000  0.500000      1.000000
  0.250000  0.000000  0.500000      2.000000
  0.000000  0.333333  0.500000      2.000000
  0.250000  0.333333  0.500000      4.000000
 
 Following cartesian coordinates:
            Coordinates               Weight
  0.000000  0.000000  0.000000      1.000000
  0.043220  0.000000  0.021616      2.000000
  0.086441  0.000000  0.043233      2.000000
  0.000000 -0.042903  0.000000      2.000000
  0.043220 -0.042903  0.021616      4.000000
  0.086441 -0.042903  0.043233      4.000000
  0.043208  0.000000 -0.043208      1.000000
  0.086429  0.000000 -0.021592      2.000000
  0.043208 -0.042903 -0.043208      2.000000
  0.086429 -0.042903 -0.021592      4.000000
 
 TETIRR: Found     65 inequivalent tetrahedra from      144


--------------------------------------------------------------------------------------------------------




 Dimension of arrays:
   k-points           NKPTS =     10   k-points in BZ     NKDIM =     10   number of bands    NBANDS=    146
   number of dos      NEDOS =    301   number of ions     NIONS =     30
   non local maximal  LDIM  =      8   non local SUM 2l+1 LMDIM =     32
   total plane-waves  NPLWV = 161280
   max r-space proj   IRMAX =   8446   max aug-charges    IRDMAX=  24506
   dimension x,y,z NGX =    42 NGY =   60 NGZ =   64
   dimension x,y,z NGXF=    84 NGYF=  120 NGZF=  128
   support grid    NGXF=    84 NGYF=  120 NGZF=  128
   ions per type =               6   2   4  18
   NGX,Y,Z   is equivalent  to a cutoff of  12.80, 12.84, 12.34 a.u.
   NGXF,Y,Z  is equivalent  to a cutoff of  25.61, 25.68, 24.67 a.u.

 SYSTEM =  final                                   
 POSCAR =  SCEL6_3_2_1_0_1_0/6                     

 Startparameter for this run:
   NWRITE =      2    write-flag & timer
   PREC   = accura    normal or accurate (medium, high low for compatibility)
   ISTART =      0    job   : 0-new  1-cont  2-samecut
   ICHARG =      1    charge: 1-file 2-atom 10-const
   ISPIN  =      2    spin polarized calculation?
   LNONCOLLINEAR =      F non collinear calculations
   LSORBIT =      F    spin-orbit coupling
   INIWAV =      1    electr: 0-lowe 1-rand  2-diag
   LASPH  =      F    aspherical Exc in radial PAW
   METAGGA=      F    non-selfconsistent MetaGGA calc.

 Electronic Relaxation 1
   ENCUT  =  520.0 eV  38.22 Ry    6.18 a.u.  10.14 14.45 16.04*2*pi/ulx,y,z
   ENINI  =  520.0     initial cutoff
   ENAUG  =  605.4 eV  augmentation charge cutoff
   NELM   =    100;   NELMIN=  2; NELMDL= -5     # of ELM steps 
   EDIFF  = 0.1E-02   stopping-criterion for ELM
   LREAL  =      T    real-space projection
   NLSPLINE    = F    spline interpolate recip. space projectors
   LCOMPAT=      F    compatible to vasp.4.4
   GGA_COMPAT  = T    GGA compatible to vasp.4.4-vasp.4.6
   LMAXPAW     = -100 max onsite density
   LMAXMIX     =    6 max onsite mixed and CHGCAR
   VOSKOWN=      0    Vosko Wilk Nusair interpolation
   ROPT   =   -0.00025  -0.00025  -0.00025  -0.00025
 Ionic relaxation
   EDIFFG = 0.1E-01   stopping-criterion for IOM
   NSW    =      0    number of steps for IOM
   NBLOCK =      1;   KBLOCK =      1    inner block; outer block 
   IBRION =     -1    ionic relax: 0-MD 1-quasi-New 2-CG
   NFREE  =      0    steps in history (QN), initial steepest desc. (CG)
   ISIF   =      2    stress and relaxation
   IWAVPR =     10    prediction:  0-non 1-charg 2-wave 3-comb
   ISYM   =      2    0-nonsym 1-usesym 2-fastsym
   LCORR  =      T    Harris-Foulkes like correction to forces

   POTIM  = 0.5000    time-step for ionic-motion
   TEIN   =    0.0    initial temperature
   TEBEG  =    0.0;   TEEND  =   0.0 temperature during run
   SMASS  =  -3.00    Nose mass-parameter (am)
   estimated Nose-frequenzy (Omega)   =  0.10E-29 period in steps =****** mass=  -0.680E-27a.u.
   SCALEE = 1.0000    scale energy and forces
   NPACO  =    256;   APACO  = 16.0  distance and # of slots for P.C.
   PSTRESS=    0.0 pullay stress

  Mass of Ions in am
   POMASS = 138.90 54.94 58.69 16.00
  Ionic Valenz
   ZVAL   =  11.00  7.00 10.00  6.00
  Atomic Wigner-Seitz radii
   RWIGS  =  -1.00 -1.00 -1.00 -1.00
  virtual crystal weights 
   VCA    =   1.00  1.00  1.00  1.00
   NELECT =     228.0000    total number of electrons
   NUPDOWN=      -1.0000    fix difference up-down

 DOS related values:
   EMIN   =  10.00;   EMAX   =-10.00  energy-range for DOS
   EFERMI =   0.00
   ISMEAR =    -5;   SIGMA  =   0.05  broadening in eV -4-tet -1-fermi 0-gaus

 Electronic relaxation 2 (details)
   IALGO  =     68    algorithm
   LDIAG  =      T    sub-space diagonalisation (order eigenvalues)
   LSUBROT=      F    optimize rotation matrix (better conditioning)
   TURBO    =      0    0=normal 1=particle mesh
   IRESTART =      0    0=no restart 2=restart with 2 vectors
   NREBOOT  =      0    no. of reboots
   NMIN     =      0    reboot dimension
   EREF     =   0.00    reference energy to select bands
   IMIX   =      4    mixing-type and parameters
     AMIX     =   0.40;   BMIX     =  1.00
     AMIX_MAG =   1.60;   BMIX_MAG =  1.00
     AMIN     =   0.10
     WC   =   100.;   INIMIX=   1;  MIXPRE=   1;  MAXMIX= -45

 Intra band minimization:
   WEIMIN = 0.0000     energy-eigenvalue tresh-hold
   EBREAK =  0.17E-05  absolut break condition
   DEPER  =   0.30     relativ break condition  

   TIME   =   0.40     timestep for ELM

  volume/ion in A,a.u.               =      11.56        77.98
  Fermi-wavevector in a.u.,A,eV,Ry     =   1.423686  2.690377 27.577411  2.026883
  Thomas-Fermi vector in A             =   2.544257
 
 Write flags
   LWAVE        =      F    write WAVECAR
   LDOWNSAMPLE  =      F    k-point downsampling of WAVECAR
   LCHARG       =      T    write CHGCAR
   LVTOT        =      F    write LOCPOT, total local potential
   LVHAR        =      F    write LOCPOT, Hartree potential only
   LELF         =      F    write electronic localiz. function (ELF)
   LORBIT       =     11    0 simple, 1 ext, 2 COOP (PROOUT), +10 PAW based schemes


 Dipole corrections
   LMONO  =      F    monopole corrections only (constant potential shift)
   LDIPOL =      F    correct potential (dipole corrections)
   IDIPOL =      0    1-x, 2-y, 3-z, 4-all directions 
   EPSILON=  1.0000000 bulk dielectric constant

 LDA+U is selected, type is set to LDAUTYPE =  2
   angular momentum for each species LDAUL =     0    2    2    0
   U (eV)           for each species LDAUU =   0.0  3.9  6.2  0.0
   J (eV)           for each species LDAUJ =   0.0  0.0  0.0  0.0
 Exchange correlation treatment:
   GGA     =    --    GGA type
   LEXCH   =     8    internal setting for exchange type
   VOSKOWN=      0    Vosko Wilk Nusair interpolation
   LHFCALC =     F    Hartree Fock is set to
   LHFONE  =     F    Hartree Fock one center treatment
   AEXX    =    0.0000 exact exchange contribution

 Linear response parameters
   LEPSILON=     F    determine dielectric tensor
   LRPA    =     F    only Hartree local field effects (RPA)
   LNABLA  =     F    use nabla operator in PAW spheres
   LVEL    =     F    velocity operator in full k-point grid
   LINTERFAST=   F  fast interpolation
   KINTER  =     0    interpolate to denser k-point grid
   CSHIFT  =0.1000    complex shift for real part using Kramers Kronig
   OMEGAMAX=  -1.0    maximum frequency
   DEG_THRESHOLD= 0.2000000E-02 threshold for treating states as degnerate
   RTIME   =   -0.100 relaxation time in fs
  (WPLASMAI=    0.000 imaginary part of plasma frequency in eV, 0.658/RTIME)
   DFIELD  = 0.0000000 0.0000000 0.0000000 field for delta impulse in time
 
 Orbital magnetization related:
   ORBITALMAG=     F  switch on orbital magnetization
   LCHIMAG   =     F  perturbation theory with respect to B field
   DQ        =  0.001000  dq finite difference perturbation B field
   LLRAUG    =     F  two centre corrections for induced B field



--------------------------------------------------------------------------------------------------------


 Static calculation
 charge density and potential will be updated during run
 spin polarized calculation
 RMM-DIIS sequential band-by-band and
  variant of blocked Davidson during initial phase
 perform sub-space diagonalisation
    before iterative eigenvector-optimisation
 modified Broyden-mixing scheme, WC =      100.0
 initial mixing is a Kerker type mixing with AMIX =  0.4000 and BMIX =      1.0000
 Hartree-type preconditioning will be used
 using additional bands           32
 real space projection scheme for non local part
 use partial core corrections
 calculate Harris-corrections to forces 
   (improved forces if not selfconsistent)
 use gradient corrections 
 use of overlap-Matrix (Vanderbilt PP)
 Fermi weights with tetrahedron method with Bloechl corrections


--------------------------------------------------------------------------------------------------------


  energy-cutoff  :      520.00
  volume of cell :      346.67
      direct lattice vectors                 reciprocal lattice vectors
     3.855833526  0.000000000  3.855833526     0.172881969  0.000000000  0.086465328
     0.000000000 -7.769544957  0.000000000     0.000000000 -0.128707666  0.000000000
     3.858005883  0.000000000 -7.713839399     0.086416641  0.000000000 -0.086416641

  length of vectors
     5.452972066  7.769544957  8.624820443     0.193298805  0.128707666  0.122211586


 
 k-points in units of 2pi/SCALE and weight: Automatic mesh                          
   0.00000000  0.00000000  0.00000000       0.042
   0.04322049  0.00000000  0.02161633       0.083
   0.08644098  0.00000000  0.04323266       0.083
   0.00000000 -0.04290256  0.00000000       0.083
   0.04322049 -0.04290256  0.02161633       0.167
   0.08644098 -0.04290256  0.04323266       0.167
   0.04320832  0.00000000 -0.04320832       0.042
   0.08642881  0.00000000 -0.02159199       0.083
   0.04320832 -0.04290256 -0.04320832       0.083
   0.08642881 -0.04290256 -0.02159199       0.167
 
 k-points in reciprocal lattice and weights: Automatic mesh                          
   0.00000000  0.00000000  0.00000000       0.042
   0.25000000  0.00000000  0.00000000       0.083
   0.50000000  0.00000000  0.00000000       0.083
   0.00000000  0.33333333  0.00000000       0.083
   0.25000000  0.33333333  0.00000000       0.167
   0.50000000  0.33333333  0.00000000       0.167
   0.00000000  0.00000000  0.50000000       0.042
   0.25000000  0.00000000  0.50000000       0.083
   0.00000000  0.33333333  0.50000000       0.083
   0.25000000  0.33333333  0.50000000       0.167
 
 position of ions in fractional coordinates (direct lattice) 
   0.33333330  0.50623043  0.66666670
   0.66826591  0.99177851  0.33653171
   0.99840079  0.50822149  0.99680159
   0.33333330  0.99376957  0.66666670
   0.66826591  0.50822149  0.33653171
   0.99840079  0.99177851  0.99680159
   0.16731424  0.25000000  0.33462837
   0.49935246  0.25000000  0.99870493
   0.83333330  0.75000000  0.66666670
   0.16629023  0.75000000  0.33258037
   0.83333330  0.25000000  0.66666670
   0.50037647  0.75000000  0.00075293
   0.00296239  0.25000000  0.49599004
   0.66610856  0.75000000  0.83411820
   0.33333330  0.25000000  0.16666670
   0.00055814  0.75000000  0.49921510
   0.66370431  0.25000000  0.83734326
   0.33333330  0.75000000  0.16666670
   0.16651650  0.49429927  0.33303290
   0.83333330  0.99739081  0.66666670
   0.50015020  0.49429927  0.00030040
   0.16651650  0.00570073  0.33303290
   0.83333330  0.50260919  0.66666670
   0.50015020  0.00570073  0.00030040
   0.83333330  0.25000000  0.16666670
   0.49865696  0.75000000  0.49921510
   0.17363904  0.25000000  0.83734326
   0.83333330  0.75000000  0.16666670
   0.49302766  0.25000000  0.49599004
   0.16800974  0.75000000  0.83411820
 
 position of ions in cartesian coordinates  (Angst):
   3.85728176 -3.93318007 -3.85728214
   3.87506342 -7.70566770 -0.01922951
   7.69533363 -3.94864974 -3.83950010
   3.85728176 -7.72113737 -3.85728214
   3.87506342 -3.94864974 -0.01922951
   7.69533363 -7.70566770 -3.83950010
   1.93613408 -1.94238624 -1.93613369
   5.77842945 -1.94238624 -5.77842944
   5.78519853 -5.82715872 -1.92936538
   1.92428447 -5.82715872 -1.92428408
   5.78519853 -1.94238624 -1.92936538
   1.93227317 -5.82715872  1.92356035
   1.92495498 -1.94238624 -3.81456507
   5.78643664 -5.82715872 -3.86585013
   1.92827882 -1.94238624 -0.00036244
   1.92812688 -5.82715872 -3.84871300
   5.78960855 -1.94238624 -3.89999806
   1.92827882 -5.82715872 -0.00036244
   1.92690279 -3.84048039 -1.92690240
   5.78519853 -7.74927273 -1.92936538
   1.92965486 -3.84048039  1.92617867
   1.92690279 -0.04429209 -1.92690240
   5.78519853 -3.90504470 -1.92936538
   1.92965486 -0.04429209  1.92617867
   3.85619559 -1.94238624  1.92755432
   3.84871301 -5.82715872 -1.92812688
   3.89999845 -1.94238624 -5.78960815
   3.85619559 -5.82715872  1.92755432
   3.81456508 -1.94238624 -1.92495498
   3.86585052 -5.82715872 -5.78643625
 


--------------------------------------------------------------------------------------------------------


 k-point  1 :   0.0000 0.0000 0.0000  plane waves:    9325
 k-point  2 :   0.2500 0.0000 0.0000  plane waves:    9324
 k-point  3 :   0.5000 0.0000 0.0000  plane waves:    9312
 k-point  4 :   0.0000 0.3333 0.0000  plane waves:    9321
 k-point  5 :   0.2500 0.3333 0.0000  plane waves:    9320
 k-point  6 :   0.5000 0.3333 0.0000  plane waves:    9338
 k-point  7 :   0.0000 0.0000 0.5000  plane waves:    9368
 k-point  8 :   0.2500 0.0000 0.5000  plane waves:    9355
 k-point  9 :   0.0000 0.3333 0.5000  plane waves:    9320
 k-point 10 :   0.2500 0.3333 0.5000  plane waves:    9346

 maximum and minimum number of plane-waves per node :       954      906

 maximum number of plane-waves:      9368
 maximum index in each direction: 
   IXMAX=   10   IYMAX=   14   IZMAX=   16
   IXMIN=  -10   IYMIN=  -14   IZMIN=  -16


 real space projection operators:
  total allocation   :      20501.17 KBytes
  max/ min on nodes  :       2406.61       1951.23


 parallel 3D FFT for wavefunctions:
    minimum data exchange during FFTs selected (reduces bandwidth)
 parallel 3D FFT for charge:
    minimum data exchange during FFTs selected (reduces bandwidth)


 total amount of memory used by VASP MPI-rank0    72877. kBytes
=======================================================================

   base      :      30000. kBytes
   nonlr-proj:       7262. kBytes
   fftplans  :       3088. kBytes
   grid      :       9014. kBytes
   one-center:        294. kBytes
   wavefun   :      23219. kBytes
 
     INWAV:  cpu time    0.0000: real time    0.0000
 Broyden mixing: mesh for mixing (old mesh)
   NGX = 21   NGY = 29   NGZ = 33
  (NGX  = 84   NGY  =120   NGZ  =128)
  gives a total of  20097 points

 initial charge density was supplied:
 charge density of overlapping atoms calculated
 number of electron     228.0000000 magnetization      20.0000000
 keeping initial charge density in first step


--------------------------------------------------------------------------------------------------------


 Maximum index for non-local projection operator         1189
 Maximum index for augmentation-charges         1857 (set IRDMAX)


--------------------------------------------------------------------------------------------------------


 First call to EWALD:  gamma=   0.252
 Maximum number of real-space cells 4x 3x 2
 Maximum number of reciprocal cells 2x 3x 3

    FEWALD:  cpu time    0.0016: real time    0.0016


--------------------------------------- Iteration      1(   1)  ---------------------------------------


    POTLOK:  cpu time    0.0805: real time    0.0824
    SETDIJ:  cpu time    0.0161: real time    0.0161
atom =   1  type =  1  l = 0
 
 onsite density matrix
 
spin component  1
 
  1.0989
 
spin component  2
 
  1.0989
 
 occupancies and eigenvectors
 
  o =  1.0989  v =  1.0000  0.0000      0.0000  0.0000
  o =  1.0989  v =  0.0000  1.0000      0.0000  0.0000
atom =   2  type =  1  l = 0
 
 onsite density matrix
 
spin component  1
 
  1.0989
 
spin component  2
 
  1.0989
 
 occupancies and eigenvectors
 
  o =  1.0989  v =  1.0000  0.0000      0.0000  0.0000
  o =  1.0989  v =  0.0000  1.0000      0.0000  0.0000
atom =   3  type =  1  l = 0
 
 onsite density matrix
 
spin component  1
 
  1.0989
 
spin component  2
 
  1.0989
 
 occupancies and eigenvectors
 
  o =  1.0989  v =  1.0000  0.0000      0.0000  0.0000
  o =  1.0989  v =  0.0000  1.0000      0.0000  0.0000
atom =   4  type =  1  l = 0
 
 onsite density matrix
 
spin component  1
 
  1.0989
 
spin component  2
 
  1.0989
 
 occupancies and eigenvectors
 
  o =  1.0989  v =  1.0000  0.0000      0.0000  0.0000
  o =  1.0989  v =  0.0000  1.0000      0.0000  0.0000
atom =   5  type =  1  l = 0
 
 onsite density matrix
 
spin component  1
 
  1.0989
 
spin component  2
 
  1.0989
 
 occupancies and eigenvectors
 
  o =  1.0989  v =  1.0000  0.0000      0.0000  0.0000
  o =  1.0989  v =  0.0000  1.0000      0.0000  0.0000
atom =   6  type =  1  l = 0
 
 onsite density matrix
 
spin component  1
 
  1.0989
 
spin component  2
 
  1.0989
 
 occupancies and eigenvectors
 
  o =  1.0989  v =  1.0000  0.0000      0.0000  0.0000
  o =  1.0989  v =  0.0000  1.0000      0.0000  0.0000
atom =   7  type =  2  l = 2
 
 onsite density matrix
 
spin component  1
 
  0.8272  0.0000  0.0000  0.0000  0.0000
  0.0000  0.8272  0.0000  0.0000  0.0000
  0.0000  0.0000  0.8272  0.0000  0.0000
  0.0000  0.0000  0.0000  0.8272  0.0000
  0.0000  0.0000  0.0000  0.0000  0.8272
 
spin component  2
 
  0.2256  0.0000  0.0000  0.0000  0.0000
  0.0000  0.2256  0.0000  0.0000  0.0000
  0.0000  0.0000  0.2256  0.0000  0.0000
  0.0000  0.0000  0.0000  0.2256  0.0000
  0.0000  0.0000  0.0000  0.0000  0.2256
 
 occupancies and eigenvectors
 
  o =  0.2256  v =  0.0000  0.0000  0.0000  0.0000  0.0000  0.0000  0.0000  1.0000  0.0000  0.0000      0.0000  0.0000  0.0000  0.0000  0.0000  0.0000  0.0000  0.0000  0.0000  0.0000
  o =  0.2256  v =  0.0000  0.0000  0.0000  0.0000  0.0000  1.0000  0.0000  0.0000  0.0000  0.0000      0.0000  0.0000  0.0000  0.0000  0.0000  0.0000  0.0000  0.0000  0.0000  0.0000
  o =  0.2256  v =  0.0000  0.0000  0.0000  0.0000  0.0000  0.0000  1.0000  0.0000  0.0000  0.0000      0.0000  0.0000  0.0000  0.0000  0.0000  0.0000  0.0000  0.0000  0.0000  0.0000
  o =  0.2256  v =  0.0000  0.0000  0.0000  0.0000  0.0000  0.0000  0.0000  0.0000  1.0000  0.0000      0.0000  0.0000  0.0000  0.0000  0.0000  0.0000  0.0000  0.0000  0.0000  0.0000
  o =  0.2256  v =  0.0000  0.0000  0.0000  0.0000  0.0000  0.0000  0.0000  0.0000  0.0000  1.0000      0.0000  0.0000  0.0000  0.0000  0.0000  0.0000  0.0000  0.0000  0.0000  0.0000
  o =  0.8272  v =  0.0000  1.0000  0.0000  0.0000  0.0000  0.0000  0.0000  0.0000  0.0000  0.0000      0.0000  0.0000  0.0000  0.0000  0.0000  0.0000  0.0000  0.0000  0.0000  0.0000
  o =  0.8272  v =  0.0000  0.0000  1.0000  0.0000  0.0000  0.0000  0.0000  0.0000  0.0000  0.0000      0.0000  0.0000  0.0000  0.0000  0.0000  0.0000  0.0000  0.0000  0.0000  0.0000
  o =  0.8272  v =  1.0000  0.0000  0.0000  0.0000  0.0000  0.0000  0.0000  0.0000  0.0000  0.0000      0.0000  0.0000  0.0000  0.0000  0.0000  0.0000  0.0000  0.0000  0.0000  0.0000
  o =  0.8272  v =  0.0000  0.0000  0.0000  1.0000  0.0000  0.0000  0.0000  0.0000  0.0000  0.0000      0.0000  0.0000  0.0000  0.0000  0.0000  0.0000  0.0000  0.0000  0.0000  0.0000
  o =  0.8272  v =  0.0000  0.0000  0.0000  0.0000  1.0000  0.0000  0.0000  0.0000  0.0000  0.0000      0.0000  0.0000  0.0000  0.0000  0.0000  0.0000  0.0000  0.0000  0.0000  0.0000
atom =   8  type =  2  l = 2
 
 onsite density matrix
 
spin component  1
 
  0.8272  0.0000  0.0000  0.0000  0.0000
  0.0000  0.8272  0.0000  0.0000  0.0000
  0.0000  0.0000  0.8272  0.0000  0.0000
  0.0000  0.0000  0.0000  0.8272  0.0000
  0.0000  0.0000  0.0000  0.0000  0.8272
 
spin component  2
 
  0.2256  0.0000  0.0000  0.0000  0.0000
  0.0000  0.2256  0.0000  0.0000  0.0000
  0.0000  0.0000  0.2256  0.0000  0.0000
  0.0000  0.0000  0.0000  0.2256  0.0000
  0.0000  0.0000  0.0000  0.0000  0.2256
 
 occupancies and eigenvectors
 
  o =  0.2256  v =  0.0000  0.0000  0.0000  0.0000  0.0000  0.0000  0.0000  1.0000  0.0000  0.0000      0.0000  0.0000  0.0000  0.0000  0.0000  0.0000  0.0000  0.0000  0.0000  0.0000
  o =  0.2256  v =  0.0000  0.0000  0.0000  0.0000  0.0000  1.0000  0.0000  0.0000  0.0000  0.0000      0.0000  0.0000  0.0000  0.0000  0.0000  0.0000  0.0000  0.0000  0.0000  0.0000
  o =  0.2256  v =  0.0000  0.0000  0.0000  0.0000  0.0000  0.0000  1.0000  0.0000  0.0000  0.0000      0.0000  0.0000  0.0000  0.0000  0.0000  0.0000  0.0000  0.0000  0.0000  0.0000
  o =  0.2256  v =  0.0000  0.0000  0.0000  0.0000  0.0000  0.0000  0.0000  0.0000  1.0000  0.0000      0.0000  0.0000  0.0000  0.0000  0.0000  0.0000  0.0000  0.0000  0.0000  0.0000
  o =  0.2256  v =  0.0000  0.0000  0.0000  0.0000  0.0000  0.0000  0.0000  0.0000  0.0000  1.0000      0.0000  0.0000  0.0000  0.0000  0.0000  0.0000  0.0000  0.0000  0.0000  0.0000
  o =  0.8272  v =  0.0000  1.0000  0.0000  0.0000  0.0000  0.0000  0.0000  0.0000  0.0000  0.0000      0.0000  0.0000  0.0000  0.0000  0.0000  0.0000  0.0000  0.0000  0.0000  0.0000
  o =  0.8272  v =  0.0000  0.0000  1.0000  0.0000  0.0000  0.0000  0.0000  0.0000  0.0000  0.0000      0.0000  0.0000  0.0000  0.0000  0.0000  0.0000  0.0000  0.0000  0.0000  0.0000
  o =  0.8272  v =  1.0000  0.0000  0.0000  0.0000  0.0000  0.0000  0.0000  0.0000  0.0000  0.0000      0.0000  0.0000  0.0000  0.0000  0.0000  0.0000  0.0000  0.0000  0.0000  0.0000
  o =  0.8272  v =  0.0000  0.0000  0.0000  1.0000  0.0000  0.0000  0.0000  0.0000  0.0000  0.0000      0.0000  0.0000  0.0000  0.0000  0.0000  0.0000  0.0000  0.0000  0.0000  0.0000
  o =  0.8272  v =  0.0000  0.0000  0.0000  0.0000  1.0000  0.0000  0.0000  0.0000  0.0000  0.0000      0.0000  0.0000  0.0000  0.0000  0.0000  0.0000  0.0000  0.0000  0.0000  0.0000
atom =   9  type =  3  l = 2
 
 onsite density matrix
 
spin component  1
 
  1.1008  0.0000  0.0000  0.0000  0.0000
  0.0000  1.1008  0.0000  0.0000  0.0000
  0.0000  0.0000  1.1008  0.0000  0.0000
  0.0000  0.0000  0.0000  1.1008  0.0000
  0.0000  0.0000  0.0000  0.0000  1.1008
 
spin component  2
 
  0.5927  0.0000  0.0000  0.0000  0.0000
  0.0000  0.5927  0.0000  0.0000  0.0000
  0.0000  0.0000  0.5927  0.0000  0.0000
  0.0000  0.0000  0.0000  0.5927  0.0000
  0.0000  0.0000  0.0000  0.0000  0.5927
 
 occupancies and eigenvectors
 
  o =  0.5927  v =  0.0000  0.0000  0.0000  0.0000  0.0000  1.0000  0.0000  0.0000  0.0000  0.0000      0.0000  0.0000  0.0000  0.0000  0.0000  0.0000  0.0000  0.0000  0.0000  0.0000
  o =  0.5927  v =  0.0000  0.0000  0.0000  0.0000  0.0000  0.0000  1.0000  0.0000  0.0000  0.0000      0.0000  0.0000  0.0000  0.0000  0.0000  0.0000  0.0000  0.0000  0.0000  0.0000
  o =  0.5927  v =  0.0000  0.0000  0.0000  0.0000  0.0000  0.0000  0.0000  1.0000  0.0000  0.0000      0.0000  0.0000  0.0000  0.0000  0.0000  0.0000  0.0000  0.0000  0.0000  0.0000
  o =  0.5927  v =  0.0000  0.0000  0.0000  0.0000  0.0000  0.0000  0.0000  0.0000  1.0000  0.0000      0.0000  0.0000  0.0000  0.0000  0.0000  0.0000  0.0000  0.0000  0.0000  0.0000
  o =  0.5927  v =  0.0000  0.0000  0.0000  0.0000  0.0000  0.0000  0.0000  0.0000  0.0000  1.0000      0.0000  0.0000  0.0000  0.0000  0.0000  0.0000  0.0000  0.0000  0.0000  0.0000
  o =  1.1008  v =  1.0000  0.0000  0.0000  0.0000  0.0000  0.0000  0.0000  0.0000  0.0000  0.0000      0.0000  0.0000  0.0000  0.0000  0.0000  0.0000  0.0000  0.0000  0.0000  0.0000
  o =  1.1008  v =  0.0000  1.0000  0.0000  0.0000  0.0000  0.0000  0.0000  0.0000  0.0000  0.0000      0.0000  0.0000  0.0000  0.0000  0.0000  0.0000  0.0000  0.0000  0.0000  0.0000
  o =  1.1008  v =  0.0000  0.0000  1.0000  0.0000  0.0000  0.0000  0.0000  0.0000  0.0000  0.0000      0.0000  0.0000  0.0000  0.0000  0.0000  0.0000  0.0000  0.0000  0.0000  0.0000
  o =  1.1008  v =  0.0000  0.0000  0.0000  1.0000  0.0000  0.0000  0.0000  0.0000  0.0000  0.0000      0.0000  0.0000  0.0000  0.0000  0.0000  0.0000  0.0000  0.0000  0.0000  0.0000
  o =  1.1008  v =  0.0000  0.0000  0.0000  0.0000  1.0000  0.0000  0.0000  0.0000  0.0000  0.0000      0.0000  0.0000  0.0000  0.0000  0.0000  0.0000  0.0000  0.0000  0.0000  0.0000
atom =  10  type =  3  l = 2
 
 onsite density matrix
 
spin component  1
 
  1.1008  0.0000  0.0000  0.0000  0.0000
  0.0000  1.1008  0.0000  0.0000  0.0000
  0.0000  0.0000  1.1008  0.0000  0.0000
  0.0000  0.0000  0.0000  1.1008  0.0000
  0.0000  0.0000  0.0000  0.0000  1.1008
 
spin component  2
 
  0.5927  0.0000  0.0000  0.0000  0.0000
  0.0000  0.5927  0.0000  0.0000  0.0000
  0.0000  0.0000  0.5927  0.0000  0.0000
  0.0000  0.0000  0.0000  0.5927  0.0000
  0.0000  0.0000  0.0000  0.0000  0.5927
 
 occupancies and eigenvectors
 
  o =  0.5927  v =  0.0000  0.0000  0.0000  0.0000  0.0000  1.0000  0.0000  0.0000  0.0000  0.0000      0.0000  0.0000  0.0000  0.0000  0.0000  0.0000  0.0000  0.0000  0.0000  0.0000
  o =  0.5927  v =  0.0000  0.0000  0.0000  0.0000  0.0000  0.0000  1.0000  0.0000  0.0000  0.0000      0.0000  0.0000  0.0000  0.0000  0.0000  0.0000  0.0000  0.0000  0.0000  0.0000
  o =  0.5927  v =  0.0000  0.0000  0.0000  0.0000  0.0000  0.0000  0.0000  1.0000  0.0000  0.0000      0.0000  0.0000  0.0000  0.0000  0.0000  0.0000  0.0000  0.0000  0.0000  0.0000
  o =  0.5927  v =  0.0000  0.0000  0.0000  0.0000  0.0000  0.0000  0.0000  0.0000  1.0000  0.0000      0.0000  0.0000  0.0000  0.0000  0.0000  0.0000  0.0000  0.0000  0.0000  0.0000
  o =  0.5927  v =  0.0000  0.0000  0.0000  0.0000  0.0000  0.0000  0.0000  0.0000  0.0000  1.0000      0.0000  0.0000  0.0000  0.0000  0.0000  0.0000  0.0000  0.0000  0.0000  0.0000
  o =  1.1008  v =  1.0000  0.0000  0.0000  0.0000  0.0000  0.0000  0.0000  0.0000  0.0000  0.0000      0.0000  0.0000  0.0000  0.0000  0.0000  0.0000  0.0000  0.0000  0.0000  0.0000
  o =  1.1008  v =  0.0000  1.0000  0.0000  0.0000  0.0000  0.0000  0.0000  0.0000  0.0000  0.0000      0.0000  0.0000  0.0000  0.0000  0.0000  0.0000  0.0000  0.0000  0.0000  0.0000
  o =  1.1008  v =  0.0000  0.0000  1.0000  0.0000  0.0000  0.0000  0.0000  0.0000  0.0000  0.0000      0.0000  0.0000  0.0000  0.0000  0.0000  0.0000  0.0000  0.0000  0.0000  0.0000
  o =  1.1008  v =  0.0000  0.0000  0.0000  1.0000  0.0000  0.0000  0.0000  0.0000  0.0000  0.0000      0.0000  0.0000  0.0000  0.0000  0.0000  0.0000  0.0000  0.0000  0.0000  0.0000
  o =  1.1008  v =  0.0000  0.0000  0.0000  0.0000  1.0000  0.0000  0.0000  0.0000  0.0000  0.0000      0.0000  0.0000  0.0000  0.0000  0.0000  0.0000  0.0000  0.0000  0.0000  0.0000
atom =  11  type =  3  l = 2
 
 onsite density matrix
 
spin component  1
 
  1.1008  0.0000  0.0000  0.0000  0.0000
  0.0000  1.1008  0.0000  0.0000  0.0000
  0.0000  0.0000  1.1008  0.0000  0.0000
  0.0000  0.0000  0.0000  1.1008  0.0000
  0.0000  0.0000  0.0000  0.0000  1.1008
 
spin component  2
 
  0.5927  0.0000  0.0000  0.0000  0.0000
  0.0000  0.5927  0.0000  0.0000  0.0000
  0.0000  0.0000  0.5927  0.0000  0.0000
  0.0000  0.0000  0.0000  0.5927  0.0000
  0.0000  0.0000  0.0000  0.0000  0.5927
 
 occupancies and eigenvectors
 
  o =  0.5927  v =  0.0000  0.0000  0.0000  0.0000  0.0000  1.0000  0.0000  0.0000  0.0000  0.0000      0.0000  0.0000  0.0000  0.0000  0.0000  0.0000  0.0000  0.0000  0.0000  0.0000
  o =  0.5927  v =  0.0000  0.0000  0.0000  0.0000  0.0000  0.0000  1.0000  0.0000  0.0000  0.0000      0.0000  0.0000  0.0000  0.0000  0.0000  0.0000  0.0000  0.0000  0.0000  0.0000
  o =  0.5927  v =  0.0000  0.0000  0.0000  0.0000  0.0000  0.0000  0.0000  1.0000  0.0000  0.0000      0.0000  0.0000  0.0000  0.0000  0.0000  0.0000  0.0000  0.0000  0.0000  0.0000
  o =  0.5927  v =  0.0000  0.0000  0.0000  0.0000  0.0000  0.0000  0.0000  0.0000  1.0000  0.0000      0.0000  0.0000  0.0000  0.0000  0.0000  0.0000  0.0000  0.0000  0.0000  0.0000
  o =  0.5927  v =  0.0000  0.0000  0.0000  0.0000  0.0000  0.0000  0.0000  0.0000  0.0000  1.0000      0.0000  0.0000  0.0000  0.0000  0.0000  0.0000  0.0000  0.0000  0.0000  0.0000
  o =  1.1008  v =  1.0000  0.0000  0.0000  0.0000  0.0000  0.0000  0.0000  0.0000  0.0000  0.0000      0.0000  0.0000  0.0000  0.0000  0.0000  0.0000  0.0000  0.0000  0.0000  0.0000
  o =  1.1008  v =  0.0000  1.0000  0.0000  0.0000  0.0000  0.0000  0.0000  0.0000  0.0000  0.0000      0.0000  0.0000  0.0000  0.0000  0.0000  0.0000  0.0000  0.0000  0.0000  0.0000
  o =  1.1008  v =  0.0000  0.0000  1.0000  0.0000  0.0000  0.0000  0.0000  0.0000  0.0000  0.0000      0.0000  0.0000  0.0000  0.0000  0.0000  0.0000  0.0000  0.0000  0.0000  0.0000
  o =  1.1008  v =  0.0000  0.0000  0.0000  1.0000  0.0000  0.0000  0.0000  0.0000  0.0000  0.0000      0.0000  0.0000  0.0000  0.0000  0.0000  0.0000  0.0000  0.0000  0.0000  0.0000
  o =  1.1008  v =  0.0000  0.0000  0.0000  0.0000  1.0000  0.0000  0.0000  0.0000  0.0000  0.0000      0.0000  0.0000  0.0000  0.0000  0.0000  0.0000  0.0000  0.0000  0.0000  0.0000
atom =  12  type =  3  l = 2
 
 onsite density matrix
 
spin component  1
 
  1.1008  0.0000  0.0000  0.0000  0.0000
  0.0000  1.1008  0.0000  0.0000  0.0000
  0.0000  0.0000  1.1008  0.0000  0.0000
  0.0000  0.0000  0.0000  1.1008  0.0000
  0.0000  0.0000  0.0000  0.0000  1.1008
 
spin component  2
 
  0.5927  0.0000  0.0000  0.0000  0.0000
  0.0000  0.5927  0.0000  0.0000  0.0000
  0.0000  0.0000  0.5927  0.0000  0.0000
  0.0000  0.0000  0.0000  0.5927  0.0000
  0.0000  0.0000  0.0000  0.0000  0.5927
 
 occupancies and eigenvectors
 
  o =  0.5927  v =  0.0000  0.0000  0.0000  0.0000  0.0000  1.0000  0.0000  0.0000  0.0000  0.0000      0.0000  0.0000  0.0000  0.0000  0.0000  0.0000  0.0000  0.0000  0.0000  0.0000
  o =  0.5927  v =  0.0000  0.0000  0.0000  0.0000  0.0000  0.0000  1.0000  0.0000  0.0000  0.0000      0.0000  0.0000  0.0000  0.0000  0.0000  0.0000  0.0000  0.0000  0.0000  0.0000
  o =  0.5927  v =  0.0000  0.0000  0.0000  0.0000  0.0000  0.0000  0.0000  1.0000  0.0000  0.0000      0.0000  0.0000  0.0000  0.0000  0.0000  0.0000  0.0000  0.0000  0.0000  0.0000
  o =  0.5927  v =  0.0000  0.0000  0.0000  0.0000  0.0000  0.0000  0.0000  0.0000  1.0000  0.0000      0.0000  0.0000  0.0000  0.0000  0.0000  0.0000  0.0000  0.0000  0.0000  0.0000
  o =  0.5927  v =  0.0000  0.0000  0.0000  0.0000  0.0000  0.0000  0.0000  0.0000  0.0000  1.0000      0.0000  0.0000  0.0000  0.0000  0.0000  0.0000  0.0000  0.0000  0.0000  0.0000
  o =  1.1008  v =  1.0000  0.0000  0.0000  0.0000  0.0000  0.0000  0.0000  0.0000  0.0000  0.0000      0.0000  0.0000  0.0000  0.0000  0.0000  0.0000  0.0000  0.0000  0.0000  0.0000
  o =  1.1008  v =  0.0000  1.0000  0.0000  0.0000  0.0000  0.0000  0.0000  0.0000  0.0000  0.0000      0.0000  0.0000  0.0000  0.0000  0.0000  0.0000  0.0000  0.0000  0.0000  0.0000
  o =  1.1008  v =  0.0000  0.0000  1.0000  0.0000  0.0000  0.0000  0.0000  0.0000  0.0000  0.0000      0.0000  0.0000  0.0000  0.0000  0.0000  0.0000  0.0000  0.0000  0.0000  0.0000
  o =  1.1008  v =  0.0000  0.0000  0.0000  1.0000  0.0000  0.0000  0.0000  0.0000  0.0000  0.0000      0.0000  0.0000  0.0000  0.0000  0.0000  0.0000  0.0000  0.0000  0.0000  0.0000
  o =  1.1008  v =  0.0000  0.0000  0.0000  0.0000  1.0000  0.0000  0.0000  0.0000  0.0000  0.0000      0.0000  0.0000  0.0000  0.0000  0.0000  0.0000  0.0000  0.0000  0.0000  0.0000
atom =  13  type =  4  l = 0
 
 onsite density matrix
 
spin component  1
 
  0.8190
 
spin component  2
 
  0.8190
 
 occupancies and eigenvectors
 
  o =  0.8190  v =  1.0000  0.0000      0.0000  0.0000
  o =  0.8190  v =  0.0000  1.0000      0.0000  0.0000
atom =  14  type =  4  l = 0
 
 onsite density matrix
 
spin component  1
 
  0.8190
 
spin component  2
 
  0.8190
 
 occupancies and eigenvectors
 
  o =  0.8190  v =  1.0000  0.0000      0.0000  0.0000
  o =  0.8190  v =  0.0000  1.0000      0.0000  0.0000
atom =  15  type =  4  l = 0
 
 onsite density matrix
 
spin component  1
 
  0.8190
 
spin component  2
 
  0.8190
 
 occupancies and eigenvectors
 
  o =  0.8190  v =  1.0000  0.0000      0.0000  0.0000
  o =  0.8190  v =  0.0000  1.0000      0.0000  0.0000
atom =  16  type =  4  l = 0
 
 onsite density matrix
 
spin component  1
 
  0.8190
 
spin component  2
 
  0.8190
 
 occupancies and eigenvectors
 
  o =  0.8190  v =  1.0000  0.0000      0.0000  0.0000
  o =  0.8190  v =  0.0000  1.0000      0.0000  0.0000
atom =  17  type =  4  l = 0
 
 onsite density matrix
 
spin component  1
 
  0.8190
 
spin component  2
 
  0.8190
 
 occupancies and eigenvectors
 
  o =  0.8190  v =  1.0000  0.0000      0.0000  0.0000
  o =  0.8190  v =  0.0000  1.0000      0.0000  0.0000
atom =  18  type =  4  l = 0
 
 onsite density matrix
 
spin component  1
 
  0.8190
 
spin component  2
 
  0.8190
 
 occupancies and eigenvectors
 
  o =  0.8190  v =  1.0000  0.0000      0.0000  0.0000
  o =  0.8190  v =  0.0000  1.0000      0.0000  0.0000
atom =  19  type =  4  l = 0
 
 onsite density matrix
 
spin component  1
 
  0.8190
 
spin component  2
 
  0.8190
 
 occupancies and eigenvectors
 
  o =  0.8190  v =  1.0000  0.0000      0.0000  0.0000
  o =  0.8190  v =  0.0000  1.0000      0.0000  0.0000
atom =  20  type =  4  l = 0
 
 onsite density matrix
 
spin component  1
 
  0.8190
 
spin component  2
 
  0.8190
 
 occupancies and eigenvectors
 
  o =  0.8190  v =  1.0000  0.0000      0.0000  0.0000
  o =  0.8190  v =  0.0000  1.0000      0.0000  0.0000
atom =  21  type =  4  l = 0
 
 onsite density matrix
 
spin component  1
 
  0.8190
 
spin component  2
 
  0.8190
 
 occupancies and eigenvectors
 
  o =  0.8190  v =  1.0000  0.0000      0.0000  0.0000
  o =  0.8190  v =  0.0000  1.0000      0.0000  0.0000
atom =  22  type =  4  l = 0
 
 onsite density matrix
 
spin component  1
 
  0.8190
 
spin component  2
 
  0.8190
 
 occupancies and eigenvectors
 
  o =  0.8190  v =  1.0000  0.0000      0.0000  0.0000
  o =  0.8190  v =  0.0000  1.0000      0.0000  0.0000
atom =  23  type =  4  l = 0
 
 onsite density matrix
 
spin component  1
 
  0.8190
 
spin component  2
 
  0.8190
 
 occupancies and eigenvectors
 
  o =  0.8190  v =  1.0000  0.0000      0.0000  0.0000
  o =  0.8190  v =  0.0000  1.0000      0.0000  0.0000
atom =  24  type =  4  l = 0
 
 onsite density matrix
 
spin component  1
 
  0.8190
 
spin component  2
 
  0.8190
 
 occupancies and eigenvectors
 
  o =  0.8190  v =  1.0000  0.0000      0.0000  0.0000
  o =  0.8190  v =  0.0000  1.0000      0.0000  0.0000
atom =  25  type =  4  l = 0
 
 onsite density matrix
 
spin component  1
 
  0.8190
 
spin component  2
 
  0.8190
 
 occupancies and eigenvectors
 
  o =  0.8190  v =  1.0000  0.0000      0.0000  0.0000
  o =  0.8190  v =  0.0000  1.0000      0.0000  0.0000
atom =  26  type =  4  l = 0
 
 onsite density matrix
 
spin component  1
 
  0.8190
 
spin component  2
 
  0.8190
 
 occupancies and eigenvectors
 
  o =  0.8190  v =  1.0000  0.0000      0.0000  0.0000
  o =  0.8190  v =  0.0000  1.0000      0.0000  0.0000
atom =  27  type =  4  l = 0
 
 onsite density matrix
 
spin component  1
 
  0.8190
 
spin component  2
 
  0.8190
 
 occupancies and eigenvectors
 
  o =  0.8190  v =  1.0000  0.0000      0.0000  0.0000
  o =  0.8190  v =  0.0000  1.0000      0.0000  0.0000
atom =  28  type =  4  l = 0
 
 onsite density matrix
 
spin component  1
 
  0.8190
 
spin component  2
 
  0.8190
 
 occupancies and eigenvectors
 
  o =  0.8190  v =  1.0000  0.0000      0.0000  0.0000
  o =  0.8190  v =  0.0000  1.0000      0.0000  0.0000
atom =  29  type =  4  l = 0
 
 onsite density matrix
 
spin component  1
 
  0.8190
 
spin component  2
 
  0.8190
 
 occupancies and eigenvectors
 
  o =  0.8190  v =  1.0000  0.0000      0.0000  0.0000
  o =  0.8190  v =  0.0000  1.0000      0.0000  0.0000
atom =  30  type =  4  l = 0
 
 onsite density matrix
 
spin component  1
 
  0.8190
 
spin component  2
 
  0.8190
 
 occupancies and eigenvectors
 
  o =  0.8190  v =  1.0000  0.0000      0.0000  0.0000
  o =  0.8190  v =  0.0000  1.0000      0.0000  0.0000
     EDDAV:  cpu time    3.5713: real time    3.5854
 BZINTS: Fermi energy: 32.755670;228.000000 electrons
         Band energy:3463.903988;  BLOECHL correction: -0.100858
       DOS:  cpu time    0.0286: real time    0.0330
    --------------------------------------------
      LOOP:  cpu time    3.6965: real time    3.7169

 eigenvalue-minimisations  :  6208
 total energy-change (2. order) : 0.3599122E+04  (-0.7998188E+04)
 number of electron     228.0000000 magnetization      20.0000000
 augmentation part      228.0000000 magnetization      20.0000000

 Free energy of the ion-electron system (eV)
  ---------------------------------------------------
  alpha Z        PSCENC =       991.09062706
  Ewald energy   TEWEN  =    -15947.57371406
  -Hartree energ DENC   =     -3674.09428024
  -exchange      EXHF   =         0.00000000
  -V(xc)+E(xc)   XCENC  =       797.71795681
  PAW double counting   =     14758.73374630   -14913.13971078
  entropy T*S    EENTRO =         0.00000000
  eigenvalues    EBANDS =      3463.90398771
  atomic energy  EATOM  =     18122.48301372
  Solvation  Ediel_sol  =         0.00000000
  ---------------------------------------------------
  free energy    TOTEN  =      3599.12162652 eV

  energy without entropy =     3599.12162652  energy(sigma->0) =     3599.12162652


--------------------------------------------------------------------------------------------------------




--------------------------------------- Iteration      1(   2)  ---------------------------------------


     EDDAV:  cpu time    3.6560: real time    3.6693
 BZINTS: Fermi energy: 16.705266;228.000000 electrons
         Band energy:1118.202936;  BLOECHL correction: -0.042419
       DOS:  cpu time    0.0296: real time    0.0297
    --------------------------------------------
      LOOP:  cpu time    3.6857: real time    3.6990

 eigenvalue-minimisations  :  6440
 total energy-change (2. order) :-0.2345701E+04  (-0.2118690E+04)
 number of electron     228.0000000 magnetization      20.0000000
 augmentation part      228.0000000 magnetization      20.0000000

 Free energy of the ion-electron system (eV)
  ---------------------------------------------------
  alpha Z        PSCENC =       991.09062706
  Ewald energy   TEWEN  =    -15947.57371406
  -Hartree energ DENC   =     -3674.09428024
  -exchange      EXHF   =         0.00000000
  -V(xc)+E(xc)   XCENC  =       797.71795681
  PAW double counting   =     14758.73374630   -14913.13971078
  entropy T*S    EENTRO =         0.00000000
  eigenvalues    EBANDS =      1118.20293622
  atomic energy  EATOM  =     18122.48301372
  Solvation  Ediel_sol  =         0.00000000
  ---------------------------------------------------
  free energy    TOTEN  =      1253.42057502 eV

  energy without entropy =     1253.42057502  energy(sigma->0) =     1253.42057502


--------------------------------------------------------------------------------------------------------




--------------------------------------- Iteration      1(   3)  ---------------------------------------


     EDDAV:  cpu time    3.6943: real time    3.7150
 BZINTS: Fermi energy: 12.444476;228.000000 electrons
         Band energy: 141.826558;  BLOECHL correction: -0.029633
       DOS:  cpu time    0.0286: real time    0.0289
    --------------------------------------------
      LOOP:  cpu time    3.7229: real time    3.7439

 eigenvalue-minimisations  :  6360
 total energy-change (2. order) :-0.9763764E+03  (-0.8723320E+03)
 number of electron     228.0000000 magnetization      20.0000000
 augmentation part      228.0000000 magnetization      20.0000000

 Free energy of the ion-electron system (eV)
  ---------------------------------------------------
  alpha Z        PSCENC =       991.09062706
  Ewald energy   TEWEN  =    -15947.57371406
  -Hartree energ DENC   =     -3674.09428024
  -exchange      EXHF   =         0.00000000
  -V(xc)+E(xc)   XCENC  =       797.71795681
  PAW double counting   =     14758.73374630   -14913.13971078
  entropy T*S    EENTRO =         0.00000000
  eigenvalues    EBANDS =       141.82655750
  atomic energy  EATOM  =     18122.48301372
  Solvation  Ediel_sol  =         0.00000000
  ---------------------------------------------------
  free energy    TOTEN  =       277.04419631 eV

  energy without entropy =      277.04419631  energy(sigma->0) =      277.04419631


--------------------------------------------------------------------------------------------------------




--------------------------------------- Iteration      1(   4)  ---------------------------------------


     EDDAV:  cpu time    4.9150: real time    4.9304
 BZINTS: Fermi energy: 11.793747;228.000000 electrons
         Band energy:-285.480745;  BLOECHL correction: -0.010225
       DOS:  cpu time    0.0292: real time    0.0293
    --------------------------------------------
      LOOP:  cpu time    4.9442: real time    4.9597

 eigenvalue-minimisations  :  9252
 total energy-change (2. order) :-0.4273073E+03  (-0.4056372E+03)
 number of electron     228.0000000 magnetization      20.0000000
 augmentation part      228.0000000 magnetization      20.0000000

 Free energy of the ion-electron system (eV)
  ---------------------------------------------------
  alpha Z        PSCENC =       991.09062706
  Ewald energy   TEWEN  =    -15947.57371406
  -Hartree energ DENC   =     -3674.09428024
  -exchange      EXHF   =         0.00000000
  -V(xc)+E(xc)   XCENC  =       797.71795681
  PAW double counting   =     14758.73374630   -14913.13971078
  entropy T*S    EENTRO =         0.00000000
  eigenvalues    EBANDS =      -285.48074454
  atomic energy  EATOM  =     18122.48301372
  Solvation  Ediel_sol  =         0.00000000
  ---------------------------------------------------
  free energy    TOTEN  =      -150.26310573 eV

  energy without entropy =     -150.26310573  energy(sigma->0) =     -150.26310573


--------------------------------------------------------------------------------------------------------




--------------------------------------- Iteration      1(   5)  ---------------------------------------


     EDDAV:  cpu time    5.6363: real time    5.6550
 BZINTS: Fermi energy: 11.308135;228.000000 electrons
         Band energy:-378.059745;  BLOECHL correction: -0.021482
       DOS:  cpu time    0.0298: real time    0.0299
    CHARGE:  cpu time    0.1722: real time    0.1728
    MIXING:  cpu time    0.0034: real time    0.0036
    --------------------------------------------
      LOOP:  cpu time    5.8418: real time    5.8613

 eigenvalue-minimisations  : 10852
 total energy-change (2. order) :-0.9257900E+02  (-0.8941010E+02)
 number of electron     227.9999990 magnetization      17.6988462
 augmentation part       31.1225396 magnetization      13.3450020

 Broyden mixing:
  rms(total) = 0.82747E+01    rms(broyden)= 0.82742E+01
  rms(prec ) = 0.97883E+01
  weight for this iteration     100.00

 Free energy of the ion-electron system (eV)
  ---------------------------------------------------
  alpha Z        PSCENC =       991.09062706
  Ewald energy   TEWEN  =    -15947.57371406
  -Hartree energ DENC   =     -3674.09428024
  -exchange      EXHF   =         0.00000000
  -V(xc)+E(xc)   XCENC  =       797.71795681
  PAW double counting   =     14758.73374630   -14913.13971078
  entropy T*S    EENTRO =         0.00000000
  eigenvalues    EBANDS =      -378.05974538
  atomic energy  EATOM  =     18122.48301372
  Solvation  Ediel_sol  =         0.00000000
  ---------------------------------------------------
  free energy    TOTEN  =      -242.84210658 eV

  energy without entropy =     -242.84210658  energy(sigma->0) =     -242.84210658


--------------------------------------------------------------------------------------------------------




--------------------------------------- Iteration      1(   6)  ---------------------------------------


    POTLOK:  cpu time    0.0770: real time    0.0787
    SETDIJ:  cpu time    0.0146: real time    0.0147
atom =   1  type =  1  l = 0
 
 onsite density matrix
 
spin component  1
 
  1.0565
 
spin component  2
 
  1.0561
 
 occupancies and eigenvectors
 
  o =  1.0561  v =  0.0000  1.0000      0.0000  0.0000
  o =  1.0565  v =  1.0000  0.0000      0.0000  0.0000
atom =   2  type =  1  l = 0
 
 onsite density matrix
 
spin component  1
 
  1.0567
 
spin component  2
 
  1.0567
 
 occupancies and eigenvectors
 
  o =  1.0567  v =  1.0000  0.0000      0.0000  0.0000
  o =  1.0567  v =  0.0000  1.0000      0.0000  0.0000
atom =   3  type =  1  l = 0
 
 onsite density matrix
 
spin component  1
 
  1.0567
 
spin component  2
 
  1.0567
 
 occupancies and eigenvectors
 
  o =  1.0567  v =  1.0000  0.0000      0.0000  0.0000
  o =  1.0567  v =  0.0000  1.0000      0.0000  0.0000
atom =   4  type =  1  l = 0
 
 onsite density matrix
 
spin component  1
 
  1.0565
 
spin component  2
 
  1.0561
 
 occupancies and eigenvectors
 
  o =  1.0561  v =  0.0000  1.0000      0.0000  0.0000
  o =  1.0565  v =  1.0000  0.0000      0.0000  0.0000
atom =   5  type =  1  l = 0
 
 onsite density matrix
 
spin component  1
 
  1.0567
 
spin component  2
 
  1.0567
 
 occupancies and eigenvectors
 
  o =  1.0567  v =  1.0000  0.0000      0.0000  0.0000
  o =  1.0567  v =  0.0000  1.0000      0.0000  0.0000
atom =   6  type =  1  l = 0
 
 onsite density matrix
 
spin component  1
 
  1.0567
 
spin component  2
 
  1.0567
 
 occupancies and eigenvectors
 
  o =  1.0567  v =  1.0000  0.0000      0.0000  0.0000
  o =  1.0567  v =  0.0000  1.0000      0.0000  0.0000
atom =   7  type =  2  l = 2
 
 onsite density matrix
 
spin component  1
 
  0.9407 -0.0027  0.0000 -0.0000  0.0000
 -0.0027  0.9407 -0.0000 -0.0000  0.0000
  0.0000 -0.0000  0.3279 -0.0021  0.0056
 -0.0000 -0.0000 -0.0021  0.9467 -0.0036
  0.0000  0.0000  0.0056 -0.0036  0.3344
 
spin component  2
 
  0.0437  0.0015 -0.0000 -0.0000 -0.0000
  0.0015  0.0437  0.0000  0.0000  0.0000
 -0.0000  0.0000  0.4694  0.0014 -0.0031
 -0.0000  0.0000  0.0014  0.0394  0.0025
 -0.0000  0.0000 -0.0031  0.0025  0.4658
 
 occupancies and eigenvectors
 
  o =  0.0394  v =  0.0000  0.0000  0.0000  0.0000  0.0000  0.0000 -0.0000 -0.0034  1.0000 -0.0059      0.0000  0.0000  0.0000  0.0000  0.0000  0.0000  0.0000  0.0000  0.0000  0.0000
  o =  0.0422  v =  0.0000  0.0000  0.0000  0.0000  0.0000 -0.7071  0.7071 -0.0000  0.0000 -0.0000      0.0000  0.0000  0.0000  0.0000  0.0000  0.0000  0.0000  0.0000  0.0000  0.0000
  o =  0.0453  v =  0.0000  0.0000  0.0000  0.0000  0.0000 -0.7071 -0.7071 -0.0000 -0.0000 -0.0000      0.0000  0.0000  0.0000  0.0000  0.0000  0.0000  0.0000  0.0000  0.0000  0.0000
  o =  0.3247  v =  0.0000 -0.0000 -0.8660  0.0000  0.5000  0.0000  0.0000  0.0000  0.0000  0.0000      0.0000  0.0000  0.0000  0.0000  0.0000  0.0000  0.0000  0.0000  0.0000  0.0000
  o =  0.3376  v =  0.0000  0.0000 -0.5000 -0.0069 -0.8660  0.0000  0.0000  0.0000  0.0000  0.0000      0.0000  0.0000  0.0000  0.0000  0.0000  0.0000  0.0000  0.0000  0.0000  0.0000
  o =  0.4640  v =  0.0000  0.0000  0.0000  0.0000  0.0000  0.0000 -0.0000 -0.5000 -0.0068 -0.8660      0.0000  0.0000  0.0000  0.0000  0.0000  0.0000  0.0000  0.0000  0.0000  0.0000
  o =  0.4711  v =  0.0000  0.0000  0.0000  0.0000  0.0000  0.0000 -0.0000 -0.8660  0.0000  0.5000      0.0000  0.0000  0.0000  0.0000  0.0000  0.0000  0.0000  0.0000  0.0000  0.0000
  o =  0.9380  v = -0.7071 -0.7071 -0.0000 -0.0000 -0.0000  0.0000  0.0000  0.0000  0.0000  0.0000      0.0000  0.0000  0.0000  0.0000  0.0000  0.0000  0.0000  0.0000  0.0000  0.0000
  o =  0.9435  v =  0.7071 -0.7071  0.0000 -0.0000  0.0000  0.0000  0.0000  0.0000  0.0000  0.0000      0.0000  0.0000  0.0000  0.0000  0.0000  0.0000  0.0000  0.0000  0.0000  0.0000
  o =  0.9467  v =  0.0000 -0.0000 -0.0034  1.0000 -0.0059  0.0000  0.0000  0.0000  0.0000  0.0000      0.0000  0.0000  0.0000  0.0000  0.0000  0.0000  0.0000  0.0000  0.0000  0.0000
atom =   8  type =  2  l = 2
 
 onsite density matrix
 
spin component  1
 
  0.9407 -0.0027 -0.0000  0.0000 -0.0000
 -0.0027  0.9407 -0.0000 -0.0000 -0.0000
 -0.0000 -0.0000  0.3279 -0.0021  0.0056
  0.0000 -0.0000 -0.0021  0.9467 -0.0036
 -0.0000 -0.0000  0.0056 -0.0036  0.3344
 
spin component  2
 
  0.0437  0.0015  0.0000 -0.0000 -0.0000
  0.0015  0.0437  0.0000  0.0000  0.0000
  0.0000  0.0000  0.4694  0.0014 -0.0031
 -0.0000  0.0000  0.0014  0.0394  0.0025
 -0.0000  0.0000 -0.0031  0.0025  0.4658
 
 occupancies and eigenvectors
 
  o =  0.0394  v =  0.0000  0.0000  0.0000  0.0000  0.0000  0.0000  0.0000  0.0034 -1.0000  0.0059      0.0000  0.0000  0.0000  0.0000  0.0000  0.0000  0.0000  0.0000  0.0000  0.0000
[...]
 -0.000  -0.000   0.000  -0.000  -0.000   0.000  -0.000   0.000   0.001  -0.002   0.000   0.000   0.000  -0.000   0.001  -0.000
 -0.000   0.000  -0.000   0.000   0.000  -0.000   0.000   0.000   0.003  -0.000   0.000   0.000   0.000  -0.001   0.000   0.000
 -0.000   0.000  -0.000   0.000   0.000   0.000  -0.000   0.000   0.000   0.001   0.000   0.000   0.000  -0.000  -0.001   0.000
  0.000   0.000   0.000  -0.000   0.000   0.000   0.000  -0.000  -0.001   0.001   0.000  -0.000   0.000   0.000  -0.000   0.000
  0.000  -0.002   0.000   0.000  -0.000  -0.000   0.000   0.000   0.000   0.000  -0.002  -0.000   0.004   0.000   0.000   0.001
 -0.000   0.006  -0.001   0.000   0.000   0.001   0.000   0.000  -0.000   0.000  -0.000  -0.005  -0.000  -0.000   0.000   0.000
  0.000  -0.002   0.000   0.000   0.000  -0.000   0.000  -0.000   0.000   0.000   0.006  -0.000  -0.001   0.000  -0.000  -0.002
 -0.000   0.000   0.000  -0.000   0.000   0.000   0.000  -0.000  -0.000   0.004   0.000   0.000   0.000   0.000  -0.001   0.000
 -0.000   0.000   0.000  -0.000   0.000   0.000  -0.000  -0.000  -0.004  -0.000   0.000   0.000   0.000   0.002   0.000   0.000
 -0.000   0.000   0.000  -0.000   0.000   0.000   0.000  -0.000  -0.001  -0.003   0.000   0.000   0.000   0.000   0.001   0.000
 -0.000   0.000   0.000   0.000  -0.000   0.000  -0.000   0.000   0.001  -0.001   0.000   0.000   0.000  -0.000   0.000   0.000


------------------------ aborting loop because EDIFF is reached ----------------------------------------


 


 total charge     
 
# of ion       s       p       d       f       tot
--------------------------------------------------
    1        2.000   5.700   0.494   0.192   8.385
    2        2.000   5.700   0.496   0.193   8.389
    3        2.000   5.700   0.496   0.193   8.389
    4        2.000   5.700   0.494   0.192   8.385
    5        2.000   5.700   0.496   0.193   8.389
    6        2.001   5.700   0.496   0.193   8.390
    7        0.357   0.570   4.857   0.000   5.784
    8        0.357   0.570   4.857   0.000   5.784
    9        0.430   0.650   8.323   0.000   9.403
   10        0.417   0.621   8.323   0.000   9.361
   11        0.389   0.560   8.309   0.000   9.258
   12        0.417   0.621   8.323   0.000   9.361
   13        1.562   3.454   0.000   0.000   5.016
   14        1.561   3.445   0.000   0.000   5.007
   15        1.561   3.467   0.000   0.000   5.028
   16        1.561   3.445   0.000   0.000   5.007
   17        1.562   3.454   0.000   0.000   5.016
   18        1.559   3.462   0.000   0.000   5.021
   19        1.563   3.458   0.000   0.000   5.021
   20        1.559   3.440   0.000   0.000   4.999
   21        1.563   3.458   0.000   0.000   5.020
   22        1.563   3.458   0.000   0.000   5.020
   23        1.559   3.440   0.000   0.000   4.999
   24        1.563   3.458   0.000   0.000   5.021
   25        1.562   3.468   0.000   0.000   5.030
   26        1.562   3.445   0.000   0.000   5.006
   27        1.563   3.452   0.000   0.000   5.015
   28        1.560   3.435   0.000   0.000   4.995
   29        1.563   3.452   0.000   0.000   5.015
   30        1.562   3.444   0.000   0.000   5.006
--------------------------------------------------
tot         42.474  99.928  45.964   1.154 189.521

 


 magnetization (x)
 
# of ion       s       p       d       f       tot
--------------------------------------------------
    1        0.000   0.001   0.006   0.003   0.010
    2        0.001   0.001   0.007   0.003   0.011
    3        0.000   0.001   0.006   0.003   0.011
    4        0.001   0.001   0.006   0.003   0.010
    5        0.001   0.001   0.006   0.003   0.011
    6        0.001   0.001   0.006   0.003   0.011
    7        0.023   0.029   3.191   0.000   3.243
    8        0.023   0.029   3.191   0.000   3.243
    9        0.018   0.014   1.378   0.000   1.410
   10        0.015   0.008   1.483   0.000   1.506
   11        0.006  -0.006   1.625   0.000   1.625
   12        0.015   0.008   1.483   0.000   1.506
   13        0.004  -0.039   0.000   0.000  -0.035
   14        0.006  -0.065   0.000   0.000  -0.060
   15        0.001  -0.012   0.000   0.000  -0.011
   16        0.006  -0.065   0.000   0.000  -0.060
   17        0.004  -0.039   0.000   0.000  -0.035
   18        0.005  -0.042   0.000   0.000  -0.037
   19        0.006  -0.012   0.000   0.000  -0.007
   20        0.005  -0.059   0.000   0.000  -0.054
   21        0.006  -0.012   0.000   0.000  -0.007
   22        0.006  -0.013   0.000   0.000  -0.007
   23        0.005  -0.059   0.000   0.000  -0.054
   24        0.006  -0.012   0.000   0.000  -0.007
   25        0.002  -0.012   0.000   0.000  -0.010
   26        0.006  -0.068   0.000   0.000  -0.062
   27        0.004  -0.044   0.000   0.000  -0.040
   28        0.006  -0.070   0.000   0.000  -0.065
   29        0.004  -0.044   0.000   0.000  -0.040
   30        0.006  -0.068   0.000   0.000  -0.062
--------------------------------------------------
tot          0.188  -0.653  12.391   0.017  11.942

 
    CHARGE:  cpu time    0.1703: real time    0.1707
    FORLOC:  cpu time    0.0113: real time    0.0113
    FORNL :  cpu time    1.0353: real time    1.0385
    STRESS:  cpu time    3.0574: real time    3.0676
    FORCOR:  cpu time    0.0903: real time    0.0906
    FORHAR:  cpu time    0.0190: real time    0.0192
    MIXING:  cpu time    0.0057: real time    0.0057
    OFIELD:  cpu time    0.0001: real time    0.0002

  FORCE on cell =-STRESS in cart. coord.  units (eV):
  Direction    XX          YY          ZZ          XY          YZ          ZX
  --------------------------------------------------------------------------------------
  Alpha Z   991.09063   991.09063   991.09063
  Ewald   -5260.56275 -5426.50692 -5260.56273    -0.00000    -0.00000     6.45133
  Hartree  1279.48437  1155.32263  1279.48450     0.00000    -0.00000     6.06001
  E(xc)   -1066.74832 -1066.95025 -1066.74830     0.00000    -0.00000    -0.00373
  Local    -863.74011  -582.84640  -863.73958     0.00000     0.00000   -12.63953
  n-local   430.07212   428.70754   429.47661     0.11050     0.13010    -0.07131
  augment   633.45627   636.88519   633.45600     0.00000    -0.00000     0.03564
  Kinetic  3856.08503  3864.39315  3858.40547    -0.06034    -0.13551     0.19441
  Fock        0.00000     0.00000     0.00000     0.00000     0.00000     0.00000
  -------------------------------------------------------------------------------------
  Total      -0.00008     0.09557    -0.00008     0.00000     0.00000     0.08134
  in kB      -0.00039     0.44167    -0.00039     0.00000     0.00000     0.37592
  external pressure =        0.15 kB  Pullay stress =        0.00 kB


 VOLUME and BASIS-vectors are now :
 -----------------------------------------------------------------------------
  energy-cutoff  :      520.00
  volume of cell :      346.67
      direct lattice vectors                 reciprocal lattice vectors
     3.855833526  0.000000000  3.855833526     0.172881969  0.000000000  0.086465328
     0.000000000 -7.769544957  0.000000000     0.000000000 -0.128707666  0.000000000
     3.858005883  0.000000000 -7.713839399     0.086416641  0.000000000 -0.086416641

  length of vectors
     5.452972066  7.769544957  8.624820443     0.193298805  0.128707666  0.122211586


 FORCES acting on ions
    electron-ion (+dipol)            ewald-force                    non-local-force                 convergence-correction
 -----------------------------------------------------------------------------------------------
   -.111E-04 -.758E+02 0.479E-03   -.159E-03 0.754E+02 0.171E-03   -.108E-18 0.446E+00 0.108E-18   0.444E-05 -.174E-02 -.592E-05
   0.254E+02 0.937E+02 -.254E+02   -.252E+02 -.931E+02 0.252E+02   -.176E+00 -.596E+00 0.176E+00   0.200E-02 0.443E-02 -.200E-02
   -.254E+02 -.937E+02 0.254E+02   0.252E+02 0.931E+02 -.252E+02   0.176E+00 0.596E+00 -.176E+00   -.200E-02 -.443E-02 0.200E-02
   -.111E-04 0.758E+02 0.479E-03   -.159E-03 -.754E+02 0.171E-03   0.542E-19 -.446E+00 0.108E-18   0.444E-05 0.174E-02 -.592E-05
   0.254E+02 -.937E+02 -.254E+02   -.252E+02 0.931E+02 0.252E+02   -.176E+00 0.596E+00 0.176E+00   0.200E-02 -.443E-02 -.200E-02
   -.254E+02 0.937E+02 0.254E+02   0.252E+02 -.931E+02 -.252E+02   0.176E+00 -.596E+00 -.176E+00   -.200E-02 0.443E-02 0.200E-02
   0.225E+02 -.182E-12 -.225E+02   -.222E+02 -.244E-13 0.222E+02   -.375E+00 0.000E+00 0.375E+00   0.411E-02 -.225E-14 -.411E-02
   -.225E+02 0.108E-12 0.225E+02   0.222E+02 -.253E-13 -.222E+02   0.375E+00 0.000E+00 -.375E+00   -.411E-02 0.323E-13 0.411E-02
   0.105E-04 -.812E-11 -.125E-03   -.938E-04 -.440E-13 0.311E-03   0.678E-20 0.000E+00 0.000E+00   0.303E-05 -.871E-13 -.275E-05
   0.953E+01 0.868E-13 -.953E+01   -.964E+01 0.676E-13 0.964E+01   0.956E-01 0.217E-18 -.956E-01   0.156E-02 -.604E-13 -.156E-02
   0.182E-04 0.436E-11 -.126E-03   -.826E-04 -.250E-13 0.288E-03   0.339E-19 0.000E+00 0.271E-19   0.299E-05 0.460E-13 -.276E-05
   -.953E+01 0.174E-11 0.953E+01   0.964E+01 -.313E-13 -.964E+01   -.956E-01 0.000E+00 0.956E-01   -.156E-02 -.103E-12 0.156E-02
   0.877E+01 -.282E-12 -.370E+02   -.887E+01 0.123E-13 0.312E+02   0.868E-01 0.000E+00 0.579E+01   0.112E-02 0.452E-14 -.385E-02
   -.799E+00 0.253E-11 0.754E+01   0.387E+00 -.132E-13 -.709E+01   0.398E+00 0.000E+00 -.524E+00   0.118E-02 -.105E-12 -.119E-02
   -.454E-04 -.818E-12 0.392E-03   -.155E-04 0.150E-13 0.228E-03   -.271E-19 0.000E+00 -.542E-19   -.160E-05 0.196E-13 0.159E-05
   0.799E+00 -.360E-12 -.754E+01   -.387E+00 -.167E-15 0.709E+01   -.398E+00 0.000E+00 0.524E+00   -.118E-02 -.805E-13 0.119E-02
   -.877E+01 0.746E-12 0.370E+02   0.887E+01 -.192E-13 -.312E+02   -.868E-01 0.000E+00 -.579E+01   -.112E-02 0.301E-13 0.385E-02
   -.416E-04 0.124E-13 0.332E-03   -.947E-05 -.166E-13 0.303E-03   -.542E-19 0.000E+00 0.108E-18   -.162E-05 -.957E-13 0.160E-05
   0.102E+02 -.642E+02 -.102E+02   -.104E+02 0.592E+02 0.104E+02   0.153E+00 0.503E+01 -.153E+00   0.686E-03 -.475E-02 -.686E-03
   -.711E-04 0.441E+02 0.524E-03   -.868E-04 -.457E+02 0.105E-03   0.217E-18 0.159E+01 -.108E-18   0.186E-05 0.166E-02 -.164E-05
   -.102E+02 -.642E+02 0.102E+02   0.104E+02 0.592E+02 -.104E+02   -.153E+00 0.503E+01 0.153E+00   -.688E-03 -.475E-02 0.688E-03
   0.102E+02 0.642E+02 -.102E+02   -.104E+02 -.592E+02 0.104E+02   0.153E+00 -.503E+01 -.153E+00   0.686E-03 0.475E-02 -.686E-03
   -.691E-04 -.441E+02 0.519E-03   -.868E-04 0.457E+02 0.105E-03   0.461E-18 -.159E+01 -.298E-18   0.186E-05 -.166E-02 -.164E-05
   -.102E+02 0.642E+02 0.102E+02   0.104E+02 -.592E+02 -.104E+02   -.153E+00 -.503E+01 0.153E+00   -.688E-03 0.475E-02 0.688E-03
   -.509E-04 0.137E-12 0.582E-03   -.155E-04 -.427E-14 -.136E-04   0.271E-19 0.136E-19 -.542E-19   -.151E-05 0.207E-13 0.157E-05
   0.754E+01 0.109E-11 -.799E+00   -.709E+01 -.840E-14 0.387E+00   -.524E+00 0.000E+00 0.398E+00   -.119E-02 -.753E-13 0.118E-02
   -.370E+02 0.158E-12 0.877E+01   0.312E+02 0.246E-13 -.887E+01   0.579E+01 0.000E+00 0.868E-01   -.385E-02 0.227E-13 0.112E-02
   -.728E-04 0.570E-12 0.593E-03   -.953E-05 -.400E-13 -.269E-04   0.136E-18 0.000E+00 0.542E-19   -.150E-05 -.946E-13 0.160E-05
   0.370E+02 -.389E-12 -.877E+01   -.312E+02 0.103E-14 0.887E+01   -.579E+01 0.000E+00 -.868E-01   0.385E-02 0.209E-13 -.112E-02
   -.754E+01 -.619E-12 0.799E+00   0.709E+01 0.537E-13 -.387E+00   0.524E+00 -.542E-19 -.398E+00   0.119E-02 -.977E-13 -.118E-02
 -----------------------------------------------------------------------------------------------
   -.130E-02 0.688E-11 0.139E-02   -.124E-13 -.151E-12 -.328E-13   0.444E-15 -.888E-15 0.888E-15   0.517E-05 -.342E-12 -.168E-05
 
 
 POSITION                                       TOTAL-FORCE (eV/Angst)
 -----------------------------------------------------------------------------------
      3.85728     -3.93318     -3.85728         0.000000      0.007193      0.000000
      3.87506     -7.70567     -0.01923         0.026062     -0.004025     -0.026062
      7.69533     -3.94865     -3.83950        -0.026062      0.004025      0.026062
      3.85728     -7.72114     -3.85728         0.000000     -0.007193      0.000000
      3.87506     -3.94865     -0.01923         0.026062      0.004025     -0.026062
      7.69533     -7.70567     -3.83950        -0.026062     -0.004025      0.026062
      1.93613     -1.94239     -1.93613        -0.021795     -0.000000      0.021795
      5.77843     -1.94239     -5.77843         0.021795     -0.000000     -0.021795
      5.78520     -5.82716     -1.92937         0.000000     -0.000000      0.000000
      1.92428     -5.82716     -1.92428        -0.011681     -0.000000      0.011681
      5.78520     -1.94239     -1.92937         0.000000     -0.000000      0.000000
      1.93227     -5.82716      1.92356         0.011681     -0.000000     -0.011681
      1.92495     -1.94239     -3.81457        -0.013427     -0.000000     -0.008936
      5.78644     -5.82716     -3.86585        -0.012388     -0.000000     -0.072794
      1.92828     -1.94239     -0.00036         0.000000     -0.000000      0.000000
      1.92813     -5.82716     -3.84871         0.012388     -0.000000      0.072794
      5.78961     -1.94239     -3.90000         0.013427     -0.000000      0.008936
      1.92828     -5.82716     -0.00036         0.000000     -0.000000      0.000000
      1.92690     -3.84048     -1.92690        -0.006470      0.001001      0.006470
      5.78520     -7.74927     -1.92937         0.000000      0.003218      0.000000
      1.92965     -3.84048      1.92618         0.006470      0.001001     -0.006470
      1.92690     -0.04429     -1.92690        -0.006470     -0.001001      0.006470
      5.78520     -3.90504     -1.92937         0.000000     -0.003218      0.000000
      1.92965     -0.04429      1.92618         0.006470     -0.001001     -0.006470
      3.85620     -1.94239      1.92755         0.000000     -0.000000      0.000000
      3.84871     -5.82716     -1.92813        -0.072794     -0.000000     -0.012388
      3.90000     -1.94239     -5.78961        -0.008936     -0.000000     -0.013427
      3.85620     -5.82716      1.92755         0.000000     -0.000000      0.000000
      3.81457     -1.94239     -1.92495         0.008936     -0.000000      0.013427
      3.86585     -5.82716     -5.78644         0.072794     -0.000000      0.012388
 -----------------------------------------------------------------------------------
    total drift:                               -0.001292      0.000000      0.001389


--------------------------------------------------------------------------------------------------------



  FREE ENERGIE OF THE ION-ELECTRON SYSTEM (eV)
  ---------------------------------------------------
  free  energy   TOTEN  =      -213.95058979 eV

  energy  without entropy=     -213.95058979  energy(sigma->0) =     -213.95058979
 


--------------------------------------------------------------------------------------------------------


    POTLOK:  cpu time    0.0923: real time    0.0925


--------------------------------------------------------------------------------------------------------


     LOOP+:  cpu time   91.4739: real time   91.8279
    4ORBIT:  cpu time    0.0000: real time    0.0000
 


 total charge     
 
# of ion       s       p       d       f       tot
--------------------------------------------------
    1        2.000   5.700   0.494   0.192   8.385
    2        2.000   5.700   0.496   0.193   8.389
    3        2.000   5.700   0.496   0.193   8.389
    4        2.000   5.700   0.494   0.192   8.385
    5        2.000   5.700   0.496   0.193   8.389
    6        2.001   5.700   0.496   0.193   8.390
    7        0.357   0.570   4.857   0.000   5.784
    8        0.357   0.570   4.857   0.000   5.784
    9        0.430   0.650   8.323   0.000   9.403
   10        0.417   0.621   8.323   0.000   9.361
   11        0.389   0.560   8.309   0.000   9.258
   12        0.417   0.621   8.323   0.000   9.361
   13        1.562   3.454   0.000   0.000   5.016
   14        1.561   3.445   0.000   0.000   5.007
   15        1.561   3.467   0.000   0.000   5.028
   16        1.561   3.445   0.000   0.000   5.007
   17        1.562   3.454   0.000   0.000   5.016
   18        1.559   3.462   0.000   0.000   5.021
   19        1.563   3.458   0.000   0.000   5.021
   20        1.559   3.440   0.000   0.000   4.999
   21        1.563   3.458   0.000   0.000   5.020
   22        1.563   3.458   0.000   0.000   5.020
   23        1.559   3.440   0.000   0.000   4.999
   24        1.563   3.458   0.000   0.000   5.021
   25        1.562   3.468   0.000   0.000   5.030
   26        1.562   3.445   0.000   0.000   5.006
   27        1.563   3.452   0.000   0.000   5.015
   28        1.560   3.435   0.000   0.000   4.995
   29        1.563   3.452   0.000   0.000   5.015
   30        1.562   3.444   0.000   0.000   5.006
--------------------------------------------------
tot         42.474  99.928  45.964   1.154 189.521

 


 magnetization (x)
 
# of ion       s       p       d       f       tot
--------------------------------------------------
    1        0.000   0.001   0.006   0.003   0.010
    2        0.001   0.001   0.007   0.003   0.011
    3        0.000   0.001   0.006   0.003   0.011
    4        0.001   0.001   0.006   0.003   0.010
    5        0.001   0.001   0.006   0.003   0.011
    6        0.001   0.001   0.006   0.003   0.011
    7        0.023   0.029   3.191   0.000   3.243
    8        0.023   0.029   3.191   0.000   3.243
    9        0.018   0.014   1.378   0.000   1.410
   10        0.015   0.008   1.483   0.000   1.506
   11        0.006  -0.006   1.625   0.000   1.625
   12        0.015   0.008   1.483   0.000   1.506
   13        0.004  -0.039   0.000   0.000  -0.035
   14        0.006  -0.065   0.000   0.000  -0.060
   15        0.001  -0.012   0.000   0.000  -0.011
   16        0.006  -0.065   0.000   0.000  -0.060
   17        0.004  -0.039   0.000   0.000  -0.035
   18        0.005  -0.042   0.000   0.000  -0.037
   19        0.006  -0.012   0.000   0.000  -0.007
   20        0.005  -0.059   0.000   0.000  -0.054
   21        0.006  -0.012   0.000   0.000  -0.007
   22        0.006  -0.013   0.000   0.000  -0.007
   23        0.005  -0.059   0.000   0.000  -0.054
   24        0.006  -0.012   0.000   0.000  -0.007
   25        0.002  -0.012   0.000   0.000  -0.010
   26        0.006  -0.068   0.000   0.000  -0.062
   27        0.004  -0.044   0.000   0.000  -0.040
   28        0.006  -0.070   0.000   0.000  -0.065
   29        0.004  -0.044   0.000   0.000  -0.040
   30        0.006  -0.068   0.000   0.000  -0.062
--------------------------------------------------
tot          0.188  -0.653  12.391   0.017  11.942

 
 BZINTS: Fermi energy:  7.500030;228.000000 electrons
         Band energy:-287.791183;  BLOECHL correction: -0.013459

 total amount of memory used by VASP MPI-rank0    72877. kBytes
=======================================================================

   base      :      30000. kBytes
   nonlr-proj:       7262. kBytes
   fftplans  :       3088. kBytes
   grid      :       9014. kBytes
   one-center:        294. kBytes
   wavefun   :      23219. kBytes
 
  
  
 General timing and accounting informations for this job:
 ========================================================
  
                  Total CPU time used (sec):      100.731
                            User time (sec):       96.786
                          System time (sec):        3.946
                         Elapsed time (sec):      101.517
  
                   Maximum memory used (kb):      113648.
                   Average memory used (kb):           0.
  
                          Minor page faults:        42265
                          Major page faults:            0
                 Voluntary context switches:         1407
