 vasp.5.4.4.18Apr17-6-g9f103f2a35 (build Oct 03 2018 13:58:34) complex          
  
 executed on             LinuxIFC date 2019.06.04  00:55:50
 running on   40 total cores
 distrk:  each k-point on   20 cores,    2 groups
 distr:  one band on NCORES_PER_BAND=  10 cores,    2 groups


--------------------------------------------------------------------------------------------------------


 INCAR:
 POTCAR:    PAW_PBE La 06Sep2000                  
 POTCAR:    PAW_PBE Mn 06Sep2000                  
 POTCAR:    PAW_PBE Ni 02Aug2007                  
 POTCAR:    PAW_PBE O 08Apr2002                   

 ----------------------------------------------------------------------------- 
|                                                                             |
|           W    W    AA    RRRRR   N    N  II  N    N   GGGG   !!!           |
|           W    W   A  A   R    R  NN   N  II  NN   N  G    G  !!!           |
|           W    W  A    A  R    R  N N  N  II  N N  N  G       !!!           |
|           W WW W  AAAAAA  RRRRR   N  N N  II  N  N N  G  GGG   !            |
|           WW  WW  A    A  R   R   N   NN  II  N   NN  G    G                |
|           W    W  A    A  R    R  N    N  II  N    N   GGGG   !!!           |
|                                                                             |
|      You have enabled k-point parallelism (KPAR>1).                         |
|      This developmental code was originally  written by Paul Kent at ORNL,  |
|      and carefully double checked in Vienna.                                |
|      GW as well as linear response parallelism added by Martijn Marsman     |
|      and Georg Kresse.                                                      |
|      Carefully verify results versus KPAR=1.                                |
|      Report problems to Paul Kent and Vienna.                               |
|                                                                             |
 ----------------------------------------------------------------------------- 

 POTCAR:    PAW_PBE La 06Sep2000                  
   VRHFIN =La : [core=Kr4d]                                                     
   LEXCH  = PE                                                                  
   EATOM  =   865.9763 eV,   63.6475 Ry                                         
                                                                                
   TITEL  = PAW_PBE La 06Sep2000                                                
   LULTRA =        F    use ultrasoft PP ?                                      
   IUNSCR =        1    unscreen: 0-lin 1-nonlin 2-no                           
   RPACOR =    2.300    partial core radius                                     
   POMASS =  138.900; ZVAL   =   11.000    mass and valenz                      
   RCORE  =    2.800    outmost cutoff radius                                   
   RWIGS  =    2.900; RWIGS  =    1.535    wigner-seitz radius (au A)           
   ENMAX  =  219.292; ENMIN  =  164.469 eV                                      
   RCLOC  =    1.601    cutoff for local pot                                    
   LCOR   =        T    correct aug charges                                     
   LPAW   =        T    paw PP                                                  
   EAUG   =  583.575                                                            
   DEXC   =    0.000                                                            
   RMAX   =    2.853    core radius for proj-oper                               
   RAUG   =    1.300    factor for augmentation sphere                          
   RDEP   =    2.802    radius for radial grids                                 
   RDEPT  =    2.156    core radius for aug-charge                              
                                                                                
   Atomic configuration                                                         
   14 entries                                                                   
     n  l   j            E        occ.                                          
     1  0  0.50    -38741.0879   2.0000                                         
     2  0  0.50     -6166.6801   2.0000                                         
     2  1  1.50     -5526.1593   6.0000                                         
     3  0  0.50     -1319.0200   2.0000                                         
     3  1  1.50     -1114.5963   6.0000                                         
     3  2  2.50      -821.1793  10.0000                                         
     4  0  0.50      -266.3851   2.0000                                         
     4  1  1.50      -199.9276   6.0000                                         
     4  2  2.50      -103.8239  10.0000                                         
     5  0  0.50       -38.9172   2.0000                                         
     6  0  0.50        -3.6792   2.0000                                         
     5  1  1.50       -22.3948   6.0000                                         
     5  2  2.50        -3.0911   0.9999                                         
     4  3  2.50        -4.3603   0.0001                                         
   Description                                                                  
     l       E           TYP  RCUT    TYP  RCUT                                 
     0    -38.9171645     23  2.800                                             
     0     -3.6792381     23  2.800                                             
     1    -22.3948300     23  2.500                                             
     1     27.2116520     23  2.500                                             
     2     -3.0910934     23  2.500                                             
     2      1.0119135     23  2.500                                             
     3     -4.3602911     23  2.800                                             
     3     -5.7208737     23  2.800                                             
  local pseudopotential read in
  partial core-charges read in
  partial kinetic energy density read in
  atomic valenz-charges read in
  non local Contribution for L=           0  read in
    real space projection operators read in
  non local Contribution for L=           0  read in
    real space projection operators read in
  non local Contribution for L=           1  read in
    real space projection operators read in
  non local Contribution for L=           1  read in
    real space projection operators read in
  non local Contribution for L=           2  read in
    real space projection operators read in
  non local Contribution for L=           2  read in
    real space projection operators read in
  non local Contribution for L=           3  read in
    real space projection operators read in
  non local Contribution for L=           3  read in
    real space projection operators read in
    PAW grid and wavefunctions read in
 
   number of l-projection  operators is LMAX  =           8
   number of lm-projection operators is LMMAX =          32
 
 POTCAR:    PAW_PBE Mn 06Sep2000                  
   VRHFIN =Mn: d6 s1                                                            
   LEXCH  = PE                                                                  
   EATOM  =   416.7541 eV,   30.6306 Ry                                         
                                                                                
   TITEL  = PAW_PBE Mn 06Sep2000                                                
   LULTRA =        F    use ultrasoft PP ?                                      
   IUNSCR =        1    unscreen: 0-lin 1-nonlin 2-no                           
   RPACOR =    2.000    partial core radius                                     
   POMASS =   54.938; ZVAL   =    7.000    mass and valenz                      
   RCORE  =    2.300    outmost cutoff radius                                   
   RWIGS  =    2.500; RWIGS  =    1.323    wigner-seitz radius (au A)           
   ENMAX  =  269.864; ENMIN  =  202.398 eV                                      
   RCLOC  =    1.725    cutoff for local pot                                    
   LCOR   =        T    correct aug charges                                     
   LPAW   =        T    paw PP                                                  
   EAUG   =  500.711                                                            
   DEXC   =    0.000                                                            
   RMAX   =    2.343    core radius for proj-oper                               
   RAUG   =    1.300    factor for augmentation sphere                          
   RDEP   =    2.338    radius for radial grids                                 
   RDEPT  =    1.911    core radius for aug-charge                              
                                                                                
   Atomic configuration                                                         
    9 entries                                                                   
     n  l   j            E        occ.                                          
     1  0  0.50     -6424.8288   2.0000                                         
     2  0  0.50      -739.1154   2.0000                                         
     2  1  1.50      -625.3949   6.0000                                         
     3  0  0.50       -81.6100   2.0000                                         
     3  1  1.50       -50.4667   6.0000                                         
     3  2  2.50        -3.3745   6.0000                                         
     4  0  0.50        -4.1331   1.0000                                         
     4  1  0.50        -4.0817   0.0000                                         
     4  3  2.50        -1.3606   0.0000                                         
   Description                                                                  
     l       E           TYP  RCUT    TYP  RCUT                                 
     2     -3.3744664     23  2.300                                             
     2     -4.7350490     23  2.300                                             
     0     -4.1331408     23  2.300                                             
     0      7.6656614     23  2.300                                             
     1     -2.7211652     23  2.300                                             
     1     20.4087390     23  2.300                                             
  local pseudopotential read in
  partial core-charges read in
  partial kinetic energy density read in
  atomic valenz-charges read in
  non local Contribution for L=           2  read in
    real space projection operators read in
  non local Contribution for L=           2  read in
    real space projection operators read in
  non local Contribution for L=           0  read in
    real space projection operators read in
  non local Contribution for L=           0  read in
    real space projection operators read in
  non local Contribution for L=           1  read in
    real space projection operators read in
  non local Contribution for L=           1  read in
    real space projection operators read in
    PAW grid and wavefunctions read in
 
   number of l-projection  operators is LMAX  =           6
   number of lm-projection operators is LMMAX =          18
 
 POTCAR:    PAW_PBE Ni 02Aug2007                  
   VRHFIN =Ni:                                                                  
   LEXCH  = PE                                                                  
   EATOM  =  1077.6739 eV,   79.2068 Ry                                         
                                                                                
   TITEL  = PAW_PBE Ni 02Aug2007                                                
   LULTRA =        F    use ultrasoft PP ?                                      
   IUNSCR =        1    unscreen: 0-lin 1-nonlin 2-no                           
   RPACOR =    2.000    partial core radius                                     
   POMASS =   58.690; ZVAL   =   10.000    mass and valenz                      
   RCORE  =    2.300    outmost cutoff radius                                   
   RWIGS  =    2.430; RWIGS  =    1.286    wigner-seitz radius (au A)           
   ENMAX  =  269.532; ENMIN  =  202.149 eV                                      
   RCLOC  =    1.201    cutoff for local pot                                    
   LCOR   =        T    correct aug charges                                     
   LPAW   =        T    paw PP                                                  
   EAUG   =  544.565                                                            
   DEXC   =    0.000                                                            
   RMAX   =    2.357    core radius for proj-oper                               
   RAUG   =    1.300    factor for augmentation sphere                          
   RDEP   =    2.390    radius for radial grids                                 
   RDEPT  =    1.838    core radius for aug-charge                              
                                                                                
   Atomic configuration                                                         
    9 entries                                                                   
     n  l   j            E        occ.                                          
     1  0  0.50     -8206.4253   2.0000                                         
     2  0  0.50      -976.1748   2.0000                                         
     2  1  1.50      -839.0571   6.0000                                         
     3  0  0.50      -105.9991   2.0000                                         
     3  1  1.50       -66.4603   6.0000                                         
     3  2  2.50        -4.6458   9.0000                                         
     4  0  0.50        -4.4926   1.0000                                         
     4  1  1.50        -4.0817   0.0000                                         
     4  3  2.50        -1.3606   0.0000                                         
   Description                                                                  
     l       E           TYP  RCUT    TYP  RCUT                                 
     2     -4.6457903     23  2.300                                             
     2     -6.0063729     23  2.300                                             
     0     -4.4925590     23  2.300                                             
     0      5.0102601     23  2.300                                             
     1     -2.7211652     23  2.300                                             
     1     16.5183231     23  2.300                                             
  local pseudopotential read in
  partial core-charges read in
  partial kinetic energy density read in
  atomic valenz-charges read in
  non local Contribution for L=           2  read in
    real space projection operators read in
  non local Contribution for L=           2  read in
    real space projection operators read in
  non local Contribution for L=           0  read in
    real space projection operators read in
  non local Contribution for L=           0  read in
    real space projection operators read in
  non local Contribution for L=           1  read in
    real space projection operators read in
  non local Contribution for L=           1  read in
    real space projection operators read in
    PAW grid and wavefunctions read in
 
   number of l-projection  operators is LMAX  =           6
   number of lm-projection operators is LMMAX =          18
 
 POTCAR:    PAW_PBE O 08Apr2002                   
   VRHFIN =O: s2p4                                                              
   LEXCH  = PE                                                                  
   EATOM  =   432.3788 eV,   31.7789 Ry                                         
                                                                                
   TITEL  = PAW_PBE O 08Apr2002                                                 
   LULTRA =        F    use ultrasoft PP ?                                      
   IUNSCR =        1    unscreen: 0-lin 1-nonlin 2-no                           
   RPACOR =    1.200    partial core radius                                     
   POMASS =   16.000; ZVAL   =    6.000    mass and valenz                      
   RCORE  =    1.520    outmost cutoff radius                                   
   RWIGS  =    1.550; RWIGS  =    0.820    wigner-seitz radius (au A)           
   ENMAX  =  400.000; ENMIN  =  300.000 eV                                      
   ICORE  =        2    local potential                                         
   LCOR   =        T    correct aug charges                                     
   LPAW   =        T    paw PP                                                  
   EAUG   =  605.392                                                            
   DEXC   =    0.000                                                            
   RMAX   =    1.553    core radius for proj-oper                               
   RAUG   =    1.300    factor for augmentation sphere                          
   RDEP   =    1.550    radius for radial grids                                 
   RDEPT  =    1.329    core radius for aug-charge                              
                                                                                
   Atomic configuration                                                         
    4 entries                                                                   
     n  l   j            E        occ.                                          
     1  0  0.50      -514.6923   2.0000                                         
     2  0  0.50       -23.9615   2.0000                                         
     2  1  0.50        -9.0305   4.0000                                         
     3  2  1.50        -9.5241   0.0000                                         
   Description                                                                  
     l       E           TYP  RCUT    TYP  RCUT                                 
     0    -23.9615318     23  1.200                                             
     0     -9.5240782     23  1.200                                             
     1     -9.0304911     23  1.520                                             
     1      8.1634956     23  1.520                                             
     2     -9.5240782      7  1.500                                             
  local pseudopotential read in
  partial core-charges read in
  partial kinetic energy density read in
  kinetic energy density of atom read in
  atomic valenz-charges read in
  non local Contribution for L=           0  read in
    real space projection operators read in
  non local Contribution for L=           0  read in
    real space projection operators read in
  non local Contribution for L=           1  read in
    real space projection operators read in
  non local Contribution for L=           1  read in
    real space projection operators read in
    PAW grid and wavefunctions read in
 
   number of l-projection  operators is LMAX  =           4
   number of lm-projection operators is LMMAX =           8
 
 Optimization of the real space projectors (new method)

 maximal supplied QI-value         = 13.42
 optimisation between [QCUT,QGAM] = [ 11.67, 23.35] = [ 38.16,152.62] Ry 
 Optimized for a Real-space Cutoff    1.63 Angstroem

   l    n(q)    QCUT    max X(q) W(low)/X(q) W(high)/X(q)  e(spline) 
   0     11    11.673    13.882    0.27E-04    0.79E-05    0.11E-06
   0     11    11.673    12.184    0.39E-04    0.13E-04    0.19E-06
   1     11    11.673     4.523    0.73E-05    0.76E-05    0.12E-06
   1     11    11.673     4.424    0.87E-05    0.13E-04    0.19E-06
   2     10    11.673    52.481    0.65E-04    0.36E-04    0.18E-06
   2     10    11.673    38.501    0.61E-04    0.33E-04    0.17E-06
   3     10    11.673    65.631    0.17E-03    0.14E-03    0.37E-06
   3     10    11.673    56.854    0.17E-03    0.14E-03    0.37E-06
 Optimization of the real space projectors (new method)

 maximal supplied QI-value         = 16.25
 optimisation between [QCUT,QGAM] = [ 11.54, 23.24] = [ 37.28,151.24] Ry 
 Optimized for a Real-space Cutoff    1.53 Angstroem

   l    n(q)    QCUT    max X(q) W(low)/X(q) W(high)/X(q)  e(spline) 
   2     10    11.539   110.144    0.12E-03    0.13E-03    0.25E-06
   2     10    11.539   103.200    0.12E-03    0.13E-03    0.25E-06
   0     11    11.539    68.437    0.46E-04    0.21E-04    0.32E-06
   0     11    11.539    33.971    0.37E-04    0.19E-04    0.29E-06
   1     10    11.539    17.065    0.51E-04    0.22E-04    0.13E-06
   1     10    11.539    12.540    0.41E-04    0.18E-04    0.11E-06
 Optimization of the real space projectors (new method)

 maximal supplied QI-value         = 16.25
 optimisation between [QCUT,QGAM] = [ 11.54, 23.24] = [ 37.28,151.24] Ry 
 Optimized for a Real-space Cutoff    1.45 Angstroem

   l    n(q)    QCUT    max X(q) W(low)/X(q) W(high)/X(q)  e(spline) 
   2      9    11.539    60.317    0.19E-03    0.47E-04    0.16E-06
   2      9    11.539    55.921    0.19E-03    0.48E-04    0.16E-06
   0     10    11.539    51.690    0.80E-04    0.50E-04    0.24E-06
   0     10    11.539    30.015    0.73E-04    0.45E-04    0.22E-06
   1     10    11.539    18.849    0.87E-04    0.16E-03    0.71E-07
   1     10    11.539    14.624    0.73E-04    0.13E-03    0.64E-07
 Optimization of the real space projectors (new method)

 maximal supplied QI-value         = 24.76
 optimisation between [QCUT,QGAM] = [ 11.64, 23.27] = [ 37.91,151.63] Ry 
 Optimized for a Real-space Cutoff    1.14 Angstroem

   l    n(q)    QCUT    max X(q) W(low)/X(q) W(high)/X(q)  e(spline) 
   0      8    11.635    20.381    0.10E-03    0.33E-03    0.24E-06
   0      8    11.635    15.268    0.11E-03    0.35E-03    0.26E-06
   1      7    11.635     5.964    0.24E-03    0.31E-03    0.30E-06
   1      7    11.635     5.382    0.22E-03    0.25E-03    0.26E-06
  PAW_PBE La 06Sep2000                  :
 energy of atom  1       EATOM= -865.9763
 kinetic energy error for atom=    0.0009 (will be added to EATOM!!)
  PAW_PBE Mn 06Sep2000                  :
 energy of atom  2       EATOM= -416.7541
 kinetic energy error for atom=    0.0024 (will be added to EATOM!!)
  PAW_PBE Ni 02Aug2007                  :
 energy of atom  3       EATOM=-1077.6739
 kinetic energy error for atom=    0.0030 (will be added to EATOM!!)
  PAW_PBE O 08Apr2002                   :
 energy of atom  4       EATOM= -432.3788
 kinetic energy error for atom=    0.0208 (will be added to EATOM!!)
 
 
 POSCAR: SCEL5_1_5_1_4_0_0/0                     
  positions in direct lattice
  velocities in cartesian coordinates
 exchange correlation table for  LEXCH =        8
   RHO(1)=    0.500       N(1)  =     2000
   RHO(2)=  100.500       N(2)  =     4000
 


--------------------------------------------------------------------------------------------------------


 ion  position               nearest neighbor table
   1  0.000  0.600  0.200-  25 2.77  25 2.77  24 2.78  21 2.78  19 2.79  19 2.79  14 2.79  14 2.79
                            20 2.79  20 2.79  15 2.79  15 2.79   9 3.40   9 3.40   7 3.40   7 3.40
   2  0.000  0.194  0.389-  25 2.61  19 2.69  14 2.69  14 2.69  19 2.69  24 2.77  24 2.77  10 3.27
                            10 3.27   9 3.40   9 3.40   9 3.40   9 3.40
   3  0.000  0.799  0.598-  24 2.73  13 2.75  13 2.75  18 2.75  18 2.75  23 2.77  23 2.77  22 2.78
                            17 2.79  17 2.79  12 2.79  12 2.79   9 3.37   9 3.37   8 3.40   8 3.40
   4  0.000  0.401  0.802-  21 2.73  16 2.75  16 2.75  11 2.75  11 2.75  22 2.77  22 2.77  23 2.78
                            17 2.79  17 2.79  12 2.79  12 2.79   7 3.37   7 3.37   6 3.40   6 3.40
   5  0.000  0.006  0.011-  25 2.61  15 2.69  15 2.69  20 2.69  20 2.69  21 2.77  21 2.77  10 3.27
                            10 3.27   7 3.40   7 3.40   7 3.40   7 3.40
   6  0.500  0.900  0.801-  12 1.96  17 1.96  22 1.97  22 1.97  11 1.97  16 1.97   4 3.40   4 3.40
                             4 3.40   4 3.40   3 3.43   3 3.43
   7  0.500  0.500  1.000-  15 1.92  20 1.92  16 1.93  11 1.93  21 1.97  21 1.97   4 3.37   4 3.37
                             1 3.40   1 3.40   5 3.40   5 3.40   5 3.40   5 3.40
   8  0.500  0.300  0.599-  12 1.96  17 1.96  23 1.97  23 1.97  18 1.97  13 1.97   3 3.40   3 3.40
                             3 3.40   3 3.40   4 3.43   4 3.43
   9  0.500  0.700  0.400-  14 1.92  19 1.92  18 1.93  13 1.93  24 1.97  24 1.97   3 3.37   3 3.37
                             1 3.40   1 3.40   2 3.40   2 3.40   2 3.40   2 3.40
  10  0.500  0.100  0.200-  25 1.97  25 1.97  14 1.99  19 1.99  15 1.99  20 1.99   2 3.27   2 3.27
                             5 3.27   5 3.27
  11  0.500  0.695  0.900-   7 1.93   6 1.97   4 2.75   4 2.75
  12  0.500  0.100  0.700-   6 1.96   8 1.96   4 2.79   4 2.79   3 2.79   3 2.79
  13  0.500  0.505  0.500-   9 1.93   8 1.97   3 2.75   3 2.75
  14  0.500  0.899  0.302-   9 1.92  10 1.99   2 2.69   2 2.69   1 2.79   1 2.79
  15  0.500  0.301  0.098-   7 1.92  10 1.99   5 2.69   5 2.69   1 2.79   1 2.79
  16  0.500  0.206  0.900-   7 1.93   6 1.97   4 2.75   4 2.75
  17  0.500  0.600  0.700-   6 1.96   8 1.96   4 2.79   4 2.79   3 2.79   3 2.79
  18  0.500  0.994  0.500-   9 1.93   8 1.97   3 2.75   3 2.75
  19  0.500  0.404  0.302-   9 1.92  10 1.99   2 2.69   2 2.69   1 2.79   1 2.79
  20  0.500  0.796  0.098-   7 1.92  10 1.99   5 2.69   5 2.69   1 2.79   1 2.79
  21  0.000  0.500  0.999-   7 1.97   7 1.97   4 2.73   5 2.77   5 2.77   1 2.78
  22  0.000  0.899  0.799-   6 1.97   6 1.97   4 2.77   4 2.77   3 2.78
  23  0.000  0.301  0.601-   8 1.97   8 1.97   3 2.77   3 2.77   4 2.78
  24  0.000  0.700  0.401-   9 1.97   9 1.97   3 2.73   2 2.77   2 2.77   1 2.78
  25  0.000  0.100  0.200-  10 1.97  10 1.97   2 2.61   5 2.61   1 2.77   1 2.77
 
  LATTYP: Found a base centered orthorhombic cell.
 ALAT       =     5.5348639044
 B/A-ratio  =     5.0007018346
 C/A-ratio  =     0.7111714237
  
  Lattice vectors:
  
 A1 = (   0.0000000000,  11.7425927983,   7.8288529985)
 A2 = (   0.0000000000,  -7.8288529985, -11.7425927983)
 A3 = (  -3.9362370429,   0.0000000000,   0.0000000000)


Analysis of symmetry for initial positions (statically):
=====================================================================
 Subroutine PRICEL returns:
 Original cell was already a primitive cell.
 

 Routine SETGRP: Setting up the symmetry group for a 
 base centered orthorhombic supercell.


 Subroutine GETGRP returns: Found  8 space group operations
 (whereof  4 operations were pure point group operations)
 out of a pool of  8 trial point group operations.


The static configuration has the point symmetry C_2v.
 The point group associated with its full space group is D_2h.


Analysis of symmetry for dynamics (positions and initial velocities):
=====================================================================
 Subroutine PRICEL returns:
 Original cell was already a primitive cell.
 

 Routine SETGRP: Setting up the symmetry group for a 
 base centered orthorhombic supercell.


 Subroutine GETGRP returns: Found  8 space group operations
 (whereof  4 operations were pure point group operations)
 out of a pool of  8 trial point group operations.


The dynamic configuration has the point symmetry C_2v.
 The point group associated with its full space group is D_2h.


Analysis of structural, dynamic, and magnetic symmetry:
=====================================================================
 Subroutine PRICEL returns:
 Original cell was already a primitive cell.
 

 Routine SETGRP: Setting up the symmetry group for a 
 base centered orthorhombic supercell.


 Subroutine GETGRP returns: Found  8 space group operations
 (whereof  4 operations were pure point group operations)
 out of a pool of  8 trial point group operations.


The magnetic configuration has the point symmetry C_2v.
 The point group associated with its full space group is D_2h.


 Subroutine INISYM returns: Found  8 space group operations
 (whereof  4 operations are pure point group operations),
 and found     1 'primitive' translations

 
 
 KPOINTS: Automatic mesh                          

Automatic generation of k-mesh.
 generate k-points for:    5    4    1
Space group operators:
 irot       det(A)        alpha          n_x          n_y          n_z        tau_x        tau_y        tau_z
    1     1.000000     0.000000     1.000000     0.000000     0.000000     0.000000     0.000000     0.000000
    2    -1.000000   179.999999     1.000000     0.000000     0.000000     0.000000     0.000000     0.000000
    3     1.000000   180.000000     0.000000     0.707107     0.707107     0.000000     0.000000     0.000000
    4    -1.000000   180.000000     0.000000    -0.707107     0.707107     0.000000     0.000000     0.000000
    5    -1.000000     0.000000     1.000000     0.000000     0.000000     0.000000     0.200000    -0.600000
    6     1.000000   179.999999     1.000000     0.000000     0.000000     0.000000     0.200000    -0.600000
    7    -1.000000   180.000000     0.000000     0.707107     0.707107     0.000000     0.200000    -0.600000
    8     1.000000   180.000000     0.000000    -0.707107     0.707107     0.000000     0.200000    -0.600000
 
 Subroutine IBZKPT returns following result:
 ===========================================
 
 Found      9 irreducible k-points:
 
 Following reciprocal coordinates:
            Coordinates               Weight
  0.000000  0.000000  0.000000      1.000000
  0.200000  0.000000  0.000000      2.000000
  0.400000  0.000000  0.000000      2.000000
  0.000000  0.250000  0.000000      2.000000
  0.200000  0.250000  0.000000      4.000000
  0.400000  0.250000  0.000000      4.000000
  0.000000  0.500000  0.000000      1.000000
  0.200000  0.500000  0.000000      2.000000
  0.400000  0.500000  0.000000      2.000000
 
 Following cartesian coordinates:
            Coordinates               Weight
  0.000000  0.000000  0.000000      1.000000
  0.050810  0.000000  0.000000      2.000000
  0.101620  0.000000  0.000000      2.000000
  0.000000  0.038326 -0.025552      2.000000
  0.050810  0.038326 -0.025552      4.000000
  0.101620  0.038326 -0.025552      4.000000
  0.000000  0.076651 -0.051104      1.000000
  0.050810  0.076651 -0.051104      2.000000
  0.101620  0.076651 -0.051104      2.000000
 
 TETIRR: Found     54 inequivalent tetrahedra from      120


--------------------------------------------------------------------------------------------------------




 Dimension of arrays:
   k-points           NKPTS =      9   k-points in BZ     NKDIM =      9   number of bands    NBANDS=    120
   number of dos      NEDOS =    301   number of ions     NIONS =     25
   non local maximal  LDIM  =      8   non local SUM 2l+1 LMDIM =     32
   total plane-waves  NPLWV = 136080
   max r-space proj   IRMAX =   8195   max aug-charges    IRDMAX=  23780
   dimension x,y,z NGX =    30 NGY =   42 NGZ =  108
   dimension x,y,z NGXF=    60 NGYF=   84 NGZF=  216
   support grid    NGXF=    60 NGYF=   84 NGZF=  216
   ions per type =               5   4   1  15
   NGX,Y,Z   is equivalent  to a cutoff of  12.67, 12.62, 12.72 a.u.
   NGXF,Y,Z  is equivalent  to a cutoff of  25.34, 25.23, 25.44 a.u.

 SYSTEM =  final                                   
 POSCAR =  SCEL5_1_5_1_4_0_0/0                     

 Startparameter for this run:
   NWRITE =      2    write-flag & timer
   PREC   = accura    normal or accurate (medium, high low for compatibility)
   ISTART =      0    job   : 0-new  1-cont  2-samecut
   ICHARG =      1    charge: 1-file 2-atom 10-const
   ISPIN  =      2    spin polarized calculation?
   LNONCOLLINEAR =      F non collinear calculations
   LSORBIT =      F    spin-orbit coupling
   INIWAV =      1    electr: 0-lowe 1-rand  2-diag
   LASPH  =      F    aspherical Exc in radial PAW
   METAGGA=      F    non-selfconsistent MetaGGA calc.

 Electronic Relaxation 1
   ENCUT  =  520.0 eV  38.22 Ry    6.18 a.u.   7.32 10.29 26.24*2*pi/ulx,y,z
   ENINI  =  520.0     initial cutoff
   ENAUG  =  605.4 eV  augmentation charge cutoff
   NELM   =    100;   NELMIN=  2; NELMDL= -5     # of ELM steps 
   EDIFF  = 0.1E-02   stopping-criterion for ELM
   LREAL  =      T    real-space projection
   NLSPLINE    = F    spline interpolate recip. space projectors
   LCOMPAT=      F    compatible to vasp.4.4
   GGA_COMPAT  = T    GGA compatible to vasp.4.4-vasp.4.6
   LMAXPAW     = -100 max onsite density
   LMAXMIX     =    6 max onsite mixed and CHGCAR
   VOSKOWN=      0    Vosko Wilk Nusair interpolation
   ROPT   =   -0.00025  -0.00025  -0.00025  -0.00025
 Ionic relaxation
   EDIFFG = 0.1E-01   stopping-criterion for IOM
   NSW    =      0    number of steps for IOM
   NBLOCK =      1;   KBLOCK =      1    inner block; outer block 
   IBRION =     -1    ionic relax: 0-MD 1-quasi-New 2-CG
   NFREE  =      0    steps in history (QN), initial steepest desc. (CG)
   ISIF   =      2    stress and relaxation
   IWAVPR =     10    prediction:  0-non 1-charg 2-wave 3-comb
   ISYM   =      2    0-nonsym 1-usesym 2-fastsym
   LCORR  =      T    Harris-Foulkes like correction to forces

   POTIM  = 0.5000    time-step for ionic-motion
   TEIN   =    0.0    initial temperature
   TEBEG  =    0.0;   TEEND  =   0.0 temperature during run
   SMASS  =  -3.00    Nose mass-parameter (am)
   estimated Nose-frequenzy (Omega)   =  0.10E-29 period in steps =****** mass=  -0.354E-27a.u.
   SCALEE = 1.0000    scale energy and forces
   NPACO  =    256;   APACO  = 16.0  distance and # of slots for P.C.
   PSTRESS=    0.0 pullay stress

  Mass of Ions in am
   POMASS = 138.90 54.94 58.69 16.00
  Ionic Valenz
   ZVAL   =  11.00  7.00 10.00  6.00
  Atomic Wigner-Seitz radii
   RWIGS  =  -1.00 -1.00 -1.00 -1.00
  virtual crystal weights 
   VCA    =   1.00  1.00  1.00  1.00
   NELECT =     183.0000    total number of electrons
   NUPDOWN=      -1.0000    fix difference up-down

 DOS related values:
   EMIN   =  10.00;   EMAX   =-10.00  energy-range for DOS
   EFERMI =   0.00
   ISMEAR =    -5;   SIGMA  =   0.05  broadening in eV -4-tet -1-fermi 0-gaus

 Electronic relaxation 2 (details)
   IALGO  =     68    algorithm
   LDIAG  =      T    sub-space diagonalisation (order eigenvalues)
   LSUBROT=      F    optimize rotation matrix (better conditioning)
   TURBO    =      0    0=normal 1=particle mesh
   IRESTART =      0    0=no restart 2=restart with 2 vectors
   NREBOOT  =      0    no. of reboots
   NMIN     =      0    reboot dimension
   EREF     =   0.00    reference energy to select bands
   IMIX   =      4    mixing-type and parameters
     AMIX     =   0.40;   BMIX     =  1.00
     AMIX_MAG =   1.60;   BMIX_MAG =  1.00
     AMIN     =   0.10
     WC   =   100.;   INIMIX=   1;  MIXPRE=   1;  MAXMIX= -45

 Intra band minimization:
   WEIMIN = 0.0000     energy-eigenvalue tresh-hold
   EBREAK =  0.21E-05  absolut break condition
   DEPER  =   0.30     relativ break condition  

   TIME   =   0.40     timestep for ELM

  volume/ion in A,a.u.               =      12.06        81.39
  Fermi-wavevector in a.u.,A,eV,Ry     =   1.386096  2.619341 26.140340  1.921261
  Thomas-Fermi vector in A             =   2.510444
 
 Write flags
   LWAVE        =      F    write WAVECAR
   LDOWNSAMPLE  =      F    k-point downsampling of WAVECAR
   LCHARG       =      T    write CHGCAR
   LVTOT        =      F    write LOCPOT, total local potential
   LVHAR        =      F    write LOCPOT, Hartree potential only
   LELF         =      F    write electronic localiz. function (ELF)
   LORBIT       =     11    0 simple, 1 ext, 2 COOP (PROOUT), +10 PAW based schemes


 Dipole corrections
   LMONO  =      F    monopole corrections only (constant potential shift)
   LDIPOL =      F    correct potential (dipole corrections)
   IDIPOL =      0    1-x, 2-y, 3-z, 4-all directions 
   EPSILON=  1.0000000 bulk dielectric constant

 LDA+U is selected, type is set to LDAUTYPE =  2
   angular momentum for each species LDAUL =     0    2    2    0
   U (eV)           for each species LDAUU =   0.0  3.9  6.2  0.0
   J (eV)           for each species LDAUJ =   0.0  0.0  0.0  0.0
 Exchange correlation treatment:
   GGA     =    --    GGA type
   LEXCH   =     8    internal setting for exchange type
   VOSKOWN=      0    Vosko Wilk Nusair interpolation
   LHFCALC =     F    Hartree Fock is set to
   LHFONE  =     F    Hartree Fock one center treatment
   AEXX    =    0.0000 exact exchange contribution

 Linear response parameters
   LEPSILON=     F    determine dielectric tensor
   LRPA    =     F    only Hartree local field effects (RPA)
   LNABLA  =     F    use nabla operator in PAW spheres
   LVEL    =     F    velocity operator in full k-point grid
   LINTERFAST=   F  fast interpolation
   KINTER  =     0    interpolate to denser k-point grid
   CSHIFT  =0.1000    complex shift for real part using Kramers Kronig
   OMEGAMAX=  -1.0    maximum frequency
   DEG_THRESHOLD= 0.2000000E-02 threshold for treating states as degnerate
   RTIME   =   -0.100 relaxation time in fs
  (WPLASMAI=    0.000 imaginary part of plasma frequency in eV, 0.658/RTIME)
   DFIELD  = 0.0000000 0.0000000 0.0000000 field for delta impulse in time
 
 Orbital magnetization related:
   ORBITALMAG=     F  switch on orbital magnetization
   LCHIMAG   =     F  perturbation theory with respect to B field
   DQ        =  0.001000  dq finite difference perturbation B field
   LLRAUG    =     F  two centre corrections for induced B field



--------------------------------------------------------------------------------------------------------


 Static calculation
 charge density and potential will be updated during run
 spin polarized calculation
 RMM-DIIS sequential band-by-band and
  variant of blocked Davidson during initial phase
 perform sub-space diagonalisation
    before iterative eigenvector-optimisation
 modified Broyden-mixing scheme, WC =      100.0
 initial mixing is a Kerker type mixing with AMIX =  0.4000 and BMIX =      1.0000
 Hartree-type preconditioning will be used
 using additional bands           28
 real space projection scheme for non local part
 use partial core corrections
 calculate Harris-corrections to forces 
   (improved forces if not selfconsistent)
 use gradient corrections 
 use of overlap-Matrix (Vanderbilt PP)
 Fermi weights with tetrahedron method with Bloechl corrections


--------------------------------------------------------------------------------------------------------


  energy-cutoff  :      520.00
  volume of cell :      301.51
      direct lattice vectors                 reciprocal lattice vectors
     3.936237043  0.000000000  0.000000000     0.254049741  0.000000000  0.000000000
     0.000000000  3.913739800 -3.913739800     0.000000000  0.153302467 -0.102207621
     0.000000000  7.828852999 11.742592798     0.000000000  0.051094846  0.051094846

  length of vectors
     3.936237043  5.534863904 14.113094094     0.254049741  0.184249950  0.072259024


 
 k-points in units of 2pi/SCALE and weight: Automatic mesh                          
   0.00000000  0.00000000  0.00000000       0.050
   0.05080995  0.00000000  0.00000000       0.100
   0.10161990  0.00000000  0.00000000       0.100
   0.00000000  0.03832562 -0.02555191       0.100
   0.05080995  0.03832562 -0.02555191       0.200
   0.10161990  0.03832562 -0.02555191       0.200
   0.00000000  0.07665123 -0.05110381       0.050
   0.05080995  0.07665123 -0.05110381       0.100
   0.10161990  0.07665123 -0.05110381       0.100
 
 k-points in reciprocal lattice and weights: Automatic mesh                          
   0.00000000  0.00000000  0.00000000       0.050
   0.20000000  0.00000000  0.00000000       0.100
   0.40000000  0.00000000  0.00000000       0.100
   0.00000000  0.25000000  0.00000000       0.100
   0.20000000  0.25000000  0.00000000       0.200
   0.40000000  0.25000000  0.00000000       0.200
   0.00000000  0.50000000  0.00000000       0.050
   0.20000000  0.50000000  0.00000000       0.100
   0.40000000  0.50000000  0.00000000       0.100
 
 position of ions in fractional coordinates (direct lattice) 
   0.00000000  0.60000000  0.20000000
   0.00000000  0.19442610  0.38885220
   0.00000000  0.79899919  0.59799839
   0.00000000  0.40100081  0.80200161
   0.00000000  0.00557390  0.01114780
   0.50000000  0.90030282  0.80060565
   0.50000000  0.49994717  0.99989435
   0.50000000  0.29969718  0.59939435
   0.50000000  0.70005283  0.40010565
   0.50000000  0.10000000  0.20000000
   0.50000000  0.69450537  0.90017562
   0.50000000  0.10000000  0.70000000
   0.50000000  0.50549463  0.49982438
   0.50000000  0.89851039  0.30245035
   0.50000000  0.30148961  0.09754965
   0.50000000  0.20567024  0.90017562
   0.50000000  0.60000000  0.70000000
   0.50000000  0.99432976  0.49982438
   0.50000000  0.40393996  0.30245035
   0.50000000  0.79606004  0.09754965
   0.00000000  0.49957969  0.99915938
   0.00000000  0.89939437  0.79878875
   0.00000000  0.30060563  0.60121125
   0.00000000  0.70042031  0.40084062
   0.00000000  0.10000000  0.20000000
 
 position of ions in cartesian coordinates  (Angst):
   0.00000000  3.91401448  0.00027468
   0.00000000  3.80519987  3.80519987
   0.00000000  7.80871639  3.89497659
   0.00000000  7.84816557  7.84816557
   0.00000000  0.10908929  0.10908929
   1.96811852  9.79137492  5.87763512
   1.96811852  9.78468903  9.78468903
   1.96811852  5.86550704  5.86550704
   1.96811852  5.87219293  1.95845313
   1.96811852  1.95714458  1.95714458
   1.96811852  9.76545590  7.85228240
   1.96811852  5.87157108  7.82844098
   1.96811852  5.89142605  3.89085976
   1.96811852  5.88437521  0.03501543
   1.96811852  1.94365375 -0.03446607
   1.96811852  7.85228240  9.76545590
   1.96811852  7.82844098  5.87157108
   1.96811852  7.80459956  1.97768626
   1.96811852  3.94875523  1.97063541
   1.96811852  3.87927373 -1.97008605
   0.00000000  9.77749681  9.77749681
   0.00000000  9.77359526  5.85985546
   0.00000000  5.88328670  5.88328670
   0.00000000  5.87938515  1.96564535
   0.00000000  1.95714458  1.95714458
 


--------------------------------------------------------------------------------------------------------


 k-point  1 :   0.0000 0.0000 0.0000  plane waves:    8127
 k-point  2 :   0.2000 0.0000 0.0000  plane waves:    8119
 k-point  3 :   0.4000 0.0000 0.0000  plane waves:    8114
 k-point  4 :   0.0000 0.2500 0.0000  plane waves:    8144
 k-point  5 :   0.2000 0.2500 0.0000  plane waves:    8124
 k-point  6 :   0.4000 0.2500 0.0000  plane waves:    8098
 k-point  7 :   0.0000 0.5000 0.0000  plane waves:    8102
 k-point  8 :   0.2000 0.5000 0.0000  plane waves:    8108
 k-point  9 :   0.4000 0.5000 0.0000  plane waves:    8114

 maximum and minimum number of plane-waves per node :       829      792

 maximum number of plane-waves:      8144
 maximum index in each direction: 
   IXMAX=    7   IYMAX=   10   IZMAX=   26
   IXMIN=   -7   IYMIN=  -10   IZMIN=  -26


 real space projection operators:
  total allocation   :      16941.80 KBytes
  max/ min on nodes  :       1757.41       1661.86


 parallel 3D FFT for wavefunctions:
    minimum data exchange during FFTs selected (reduces bandwidth)
 parallel 3D FFT for charge:
    minimum data exchange during FFTs selected (reduces bandwidth)


 total amount of memory used by VASP MPI-rank0    59560. kBytes
=======================================================================

   base      :      30000. kBytes
   nonlr-proj:       5642. kBytes
   fftplans  :       2265. kBytes
   grid      :       6360. kBytes
   one-center:        294. kBytes
   wavefun   :      14999. kBytes
 
     INWAV:  cpu time    0.0000: real time    0.0002
 Broyden mixing: mesh for mixing (old mesh)
   NGX = 15   NGY = 21   NGZ = 53
  (NGX  = 60   NGY  = 84   NGZ  =216)
  gives a total of  16695 points

 initial charge density was supplied:
 charge density of overlapping atoms calculated
 number of electron     183.0000000 magnetization      19.0000000
 keeping initial charge density in first step


--------------------------------------------------------------------------------------------------------


 Maximum index for non-local projection operator          815
 Maximum index for augmentation-charges          987 (set IRDMAX)


--------------------------------------------------------------------------------------------------------


 First call to EWALD:  gamma=   0.264
 Maximum number of real-space cells 4x 3x 2
 Maximum number of reciprocal cells 2x 2x 5

    FEWALD:  cpu time    0.0018: real time    0.0019


--------------------------------------- Iteration      1(   1)  ---------------------------------------


    POTLOK:  cpu time    0.0632: real time    0.0669
    SETDIJ:  cpu time    0.0142: real time    0.0145
atom =   1  type =  1  l = 0
 
 onsite density matrix
 
spin component  1
 
  1.0989
 
spin component  2
 
  1.0989
 
 occupancies and eigenvectors
 
  o =  1.0989  v =  1.0000  0.0000      0.0000  0.0000
  o =  1.0989  v =  0.0000  1.0000      0.0000  0.0000
atom =   2  type =  1  l = 0
 
 onsite density matrix
 
spin component  1
 
  1.0989
 
spin component  2
 
  1.0989
 
 occupancies and eigenvectors
 
  o =  1.0989  v =  1.0000  0.0000      0.0000  0.0000
  o =  1.0989  v =  0.0000  1.0000      0.0000  0.0000
atom =   3  type =  1  l = 0
 
 onsite density matrix
 
spin component  1
 
  1.0989
 
spin component  2
 
  1.0989
 
 occupancies and eigenvectors
 
  o =  1.0989  v =  1.0000  0.0000      0.0000  0.0000
  o =  1.0989  v =  0.0000  1.0000      0.0000  0.0000
atom =   4  type =  1  l = 0
 
 onsite density matrix
 
spin component  1
 
  1.0989
 
spin component  2
 
  1.0989
 
 occupancies and eigenvectors
 
  o =  1.0989  v =  1.0000  0.0000      0.0000  0.0000
  o =  1.0989  v =  0.0000  1.0000      0.0000  0.0000
atom =   5  type =  1  l = 0
 
 onsite density matrix
 
spin component  1
 
  1.0989
 
spin component  2
 
  1.0989
 
 occupancies and eigenvectors
 
  o =  1.0989  v =  1.0000  0.0000      0.0000  0.0000
  o =  1.0989  v =  0.0000  1.0000      0.0000  0.0000
atom =   6  type =  2  l = 2
 
 onsite density matrix
 
spin component  1
 
  0.8272  0.0000  0.0000  0.0000  0.0000
  0.0000  0.8272  0.0000  0.0000  0.0000
  0.0000  0.0000  0.8272  0.0000  0.0000
  0.0000  0.0000  0.0000  0.8272  0.0000
  0.0000  0.0000  0.0000  0.0000  0.8272
 
spin component  2
 
  0.2256  0.0000  0.0000  0.0000  0.0000
  0.0000  0.2256  0.0000  0.0000  0.0000
  0.0000  0.0000  0.2256  0.0000  0.0000
  0.0000  0.0000  0.0000  0.2256  0.0000
  0.0000  0.0000  0.0000  0.0000  0.2256
 
 occupancies and eigenvectors
 
  o =  0.2256  v =  0.0000  0.0000  0.0000  0.0000  0.0000  0.0000  0.0000  1.0000  0.0000  0.0000      0.0000  0.0000  0.0000  0.0000  0.0000  0.0000  0.0000  0.0000  0.0000  0.0000
  o =  0.2256  v =  0.0000  0.0000  0.0000  0.0000  0.0000  1.0000  0.0000  0.0000  0.0000  0.0000      0.0000  0.0000  0.0000  0.0000  0.0000  0.0000  0.0000  0.0000  0.0000  0.0000
  o =  0.2256  v =  0.0000  0.0000  0.0000  0.0000  0.0000  0.0000  1.0000  0.0000  0.0000  0.0000      0.0000  0.0000  0.0000  0.0000  0.0000  0.0000  0.0000  0.0000  0.0000  0.0000
  o =  0.2256  v =  0.0000  0.0000  0.0000  0.0000  0.0000  0.0000  0.0000  0.0000  1.0000  0.0000      0.0000  0.0000  0.0000  0.0000  0.0000  0.0000  0.0000  0.0000  0.0000  0.0000
  o =  0.2256  v =  0.0000  0.0000  0.0000  0.0000  0.0000  0.0000  0.0000  0.0000  0.0000  1.0000      0.0000  0.0000  0.0000  0.0000  0.0000  0.0000  0.0000  0.0000  0.0000  0.0000
  o =  0.8272  v =  0.0000  1.0000  0.0000  0.0000  0.0000  0.0000  0.0000  0.0000  0.0000  0.0000      0.0000  0.0000  0.0000  0.0000  0.0000  0.0000  0.0000  0.0000  0.0000  0.0000
  o =  0.8272  v =  0.0000  0.0000  1.0000  0.0000  0.0000  0.0000  0.0000  0.0000  0.0000  0.0000      0.0000  0.0000  0.0000  0.0000  0.0000  0.0000  0.0000  0.0000  0.0000  0.0000
  o =  0.8272  v =  1.0000  0.0000  0.0000  0.0000  0.0000  0.0000  0.0000  0.0000  0.0000  0.0000      0.0000  0.0000  0.0000  0.0000  0.0000  0.0000  0.0000  0.0000  0.0000  0.0000
  o =  0.8272  v =  0.0000  0.0000  0.0000  1.0000  0.0000  0.0000  0.0000  0.0000  0.0000  0.0000      0.0000  0.0000  0.0000  0.0000  0.0000  0.0000  0.0000  0.0000  0.0000  0.0000
  o =  0.8272  v =  0.0000  0.0000  0.0000  0.0000  1.0000  0.0000  0.0000  0.0000  0.0000  0.0000      0.0000  0.0000  0.0000  0.0000  0.0000  0.0000  0.0000  0.0000  0.0000  0.0000
atom =   7  type =  2  l = 2
 
 onsite density matrix
 
spin component  1
 
  0.8272  0.0000  0.0000  0.0000  0.0000
  0.0000  0.8272  0.0000  0.0000  0.0000
  0.0000  0.0000  0.8272  0.0000  0.0000
  0.0000  0.0000  0.0000  0.8272  0.0000
  0.0000  0.0000  0.0000  0.0000  0.8272
 
spin component  2
 
  0.2256  0.0000  0.0000  0.0000  0.0000
  0.0000  0.2256  0.0000  0.0000  0.0000
  0.0000  0.0000  0.2256  0.0000  0.0000
  0.0000  0.0000  0.0000  0.2256  0.0000
  0.0000  0.0000  0.0000  0.0000  0.2256
 
 occupancies and eigenvectors
 
  o =  0.2256  v =  0.0000  0.0000  0.0000  0.0000  0.0000  0.0000  0.0000  1.0000  0.0000  0.0000      0.0000  0.0000  0.0000  0.0000  0.0000  0.0000  0.0000  0.0000  0.0000  0.0000
  o =  0.2256  v =  0.0000  0.0000  0.0000  0.0000  0.0000  1.0000  0.0000  0.0000  0.0000  0.0000      0.0000  0.0000  0.0000  0.0000  0.0000  0.0000  0.0000  0.0000  0.0000  0.0000
  o =  0.2256  v =  0.0000  0.0000  0.0000  0.0000  0.0000  0.0000  1.0000  0.0000  0.0000  0.0000      0.0000  0.0000  0.0000  0.0000  0.0000  0.0000  0.0000  0.0000  0.0000  0.0000
  o =  0.2256  v =  0.0000  0.0000  0.0000  0.0000  0.0000  0.0000  0.0000  0.0000  1.0000  0.0000      0.0000  0.0000  0.0000  0.0000  0.0000  0.0000  0.0000  0.0000  0.0000  0.0000
  o =  0.2256  v =  0.0000  0.0000  0.0000  0.0000  0.0000  0.0000  0.0000  0.0000  0.0000  1.0000      0.0000  0.0000  0.0000  0.0000  0.0000  0.0000  0.0000  0.0000  0.0000  0.0000
  o =  0.8272  v =  0.0000  1.0000  0.0000  0.0000  0.0000  0.0000  0.0000  0.0000  0.0000  0.0000      0.0000  0.0000  0.0000  0.0000  0.0000  0.0000  0.0000  0.0000  0.0000  0.0000
  o =  0.8272  v =  0.0000  0.0000  1.0000  0.0000  0.0000  0.0000  0.0000  0.0000  0.0000  0.0000      0.0000  0.0000  0.0000  0.0000  0.0000  0.0000  0.0000  0.0000  0.0000  0.0000
  o =  0.8272  v =  1.0000  0.0000  0.0000  0.0000  0.0000  0.0000  0.0000  0.0000  0.0000  0.0000      0.0000  0.0000  0.0000  0.0000  0.0000  0.0000  0.0000  0.0000  0.0000  0.0000
  o =  0.8272  v =  0.0000  0.0000  0.0000  1.0000  0.0000  0.0000  0.0000  0.0000  0.0000  0.0000      0.0000  0.0000  0.0000  0.0000  0.0000  0.0000  0.0000  0.0000  0.0000  0.0000
  o =  0.8272  v =  0.0000  0.0000  0.0000  0.0000  1.0000  0.0000  0.0000  0.0000  0.0000  0.0000      0.0000  0.0000  0.0000  0.0000  0.0000  0.0000  0.0000  0.0000  0.0000  0.0000
atom =   8  type =  2  l = 2
 
 onsite density matrix
 
spin component  1
 
  0.8272  0.0000  0.0000  0.0000  0.0000
  0.0000  0.8272  0.0000  0.0000  0.0000
  0.0000  0.0000  0.8272  0.0000  0.0000
  0.0000  0.0000  0.0000  0.8272  0.0000
  0.0000  0.0000  0.0000  0.0000  0.8272
 
spin component  2
 
  0.2256  0.0000  0.0000  0.0000  0.0000
  0.0000  0.2256  0.0000  0.0000  0.0000
  0.0000  0.0000  0.2256  0.0000  0.0000
  0.0000  0.0000  0.0000  0.2256  0.0000
  0.0000  0.0000  0.0000  0.0000  0.2256
 
 occupancies and eigenvectors
 
  o =  0.2256  v =  0.0000  0.0000  0.0000  0.0000  0.0000  0.0000  0.0000  1.0000  0.0000  0.0000      0.0000  0.0000  0.0000  0.0000  0.0000  0.0000  0.0000  0.0000  0.0000  0.0000
  o =  0.2256  v =  0.0000  0.0000  0.0000  0.0000  0.0000  1.0000  0.0000  0.0000  0.0000  0.0000      0.0000  0.0000  0.0000  0.0000  0.0000  0.0000  0.0000  0.0000  0.0000  0.0000
  o =  0.2256  v =  0.0000  0.0000  0.0000  0.0000  0.0000  0.0000  1.0000  0.0000  0.0000  0.0000      0.0000  0.0000  0.0000  0.0000  0.0000  0.0000  0.0000  0.0000  0.0000  0.0000
  o =  0.2256  v =  0.0000  0.0000  0.0000  0.0000  0.0000  0.0000  0.0000  0.0000  1.0000  0.0000      0.0000  0.0000  0.0000  0.0000  0.0000  0.0000  0.0000  0.0000  0.0000  0.0000
  o =  0.2256  v =  0.0000  0.0000  0.0000  0.0000  0.0000  0.0000  0.0000  0.0000  0.0000  1.0000      0.0000  0.0000  0.0000  0.0000  0.0000  0.0000  0.0000  0.0000  0.0000  0.0000
  o =  0.8272  v =  0.0000  1.0000  0.0000  0.0000  0.0000  0.0000  0.0000  0.0000  0.0000  0.0000      0.0000  0.0000  0.0000  0.0000  0.0000  0.0000  0.0000  0.0000  0.0000  0.0000
  o =  0.8272  v =  0.0000  0.0000  1.0000  0.0000  0.0000  0.0000  0.0000  0.0000  0.0000  0.0000      0.0000  0.0000  0.0000  0.0000  0.0000  0.0000  0.0000  0.0000  0.0000  0.0000
  o =  0.8272  v =  1.0000  0.0000  0.0000  0.0000  0.0000  0.0000  0.0000  0.0000  0.0000  0.0000      0.0000  0.0000  0.0000  0.0000  0.0000  0.0000  0.0000  0.0000  0.0000  0.0000
  o =  0.8272  v =  0.0000  0.0000  0.0000  1.0000  0.0000  0.0000  0.0000  0.0000  0.0000  0.0000      0.0000  0.0000  0.0000  0.0000  0.0000  0.0000  0.0000  0.0000  0.0000  0.0000
  o =  0.8272  v =  0.0000  0.0000  0.0000  0.0000  1.0000  0.0000  0.0000  0.0000  0.0000  0.0000      0.0000  0.0000  0.0000  0.0000  0.0000  0.0000  0.0000  0.0000  0.0000  0.0000
atom =   9  type =  2  l = 2
 
 onsite density matrix
 
spin component  1
 
  0.8272  0.0000  0.0000  0.0000  0.0000
  0.0000  0.8272  0.0000  0.0000  0.0000
  0.0000  0.0000  0.8272  0.0000  0.0000
  0.0000  0.0000  0.0000  0.8272  0.0000
  0.0000  0.0000  0.0000  0.0000  0.8272
 
spin component  2
 
  0.2256  0.0000  0.0000  0.0000  0.0000
  0.0000  0.2256  0.0000  0.0000  0.0000
  0.0000  0.0000  0.2256  0.0000  0.0000
  0.0000  0.0000  0.0000  0.2256  0.0000
  0.0000  0.0000  0.0000  0.0000  0.2256
 
 occupancies and eigenvectors
 
  o =  0.2256  v =  0.0000  0.0000  0.0000  0.0000  0.0000  0.0000  0.0000  1.0000  0.0000  0.0000      0.0000  0.0000  0.0000  0.0000  0.0000  0.0000  0.0000  0.0000  0.0000  0.0000
  o =  0.2256  v =  0.0000  0.0000  0.0000  0.0000  0.0000  1.0000  0.0000  0.0000  0.0000  0.0000      0.0000  0.0000  0.0000  0.0000  0.0000  0.0000  0.0000  0.0000  0.0000  0.0000
  o =  0.2256  v =  0.0000  0.0000  0.0000  0.0000  0.0000  0.0000  1.0000  0.0000  0.0000  0.0000      0.0000  0.0000  0.0000  0.0000  0.0000  0.0000  0.0000  0.0000  0.0000  0.0000
  o =  0.2256  v =  0.0000  0.0000  0.0000  0.0000  0.0000  0.0000  0.0000  0.0000  1.0000  0.0000      0.0000  0.0000  0.0000  0.0000  0.0000  0.0000  0.0000  0.0000  0.0000  0.0000
  o =  0.2256  v =  0.0000  0.0000  0.0000  0.0000  0.0000  0.0000  0.0000  0.0000  0.0000  1.0000      0.0000  0.0000  0.0000  0.0000  0.0000  0.0000  0.0000  0.0000  0.0000  0.0000
  o =  0.8272  v =  0.0000  1.0000  0.0000  0.0000  0.0000  0.0000  0.0000  0.0000  0.0000  0.0000      0.0000  0.0000  0.0000  0.0000  0.0000  0.0000  0.0000  0.0000  0.0000  0.0000
  o =  0.8272  v =  0.0000  0.0000  1.0000  0.0000  0.0000  0.0000  0.0000  0.0000  0.0000  0.0000      0.0000  0.0000  0.0000  0.0000  0.0000  0.0000  0.0000  0.0000  0.0000  0.0000
  o =  0.8272  v =  1.0000  0.0000  0.0000  0.0000  0.0000  0.0000  0.0000  0.0000  0.0000  0.0000      0.0000  0.0000  0.0000  0.0000  0.0000  0.0000  0.0000  0.0000  0.0000  0.0000
  o =  0.8272  v =  0.0000  0.0000  0.0000  1.0000  0.0000  0.0000  0.0000  0.0000  0.0000  0.0000      0.0000  0.0000  0.0000  0.0000  0.0000  0.0000  0.0000  0.0000  0.0000  0.0000
  o =  0.8272  v =  0.0000  0.0000  0.0000  0.0000  1.0000  0.0000  0.0000  0.0000  0.0000  0.0000      0.0000  0.0000  0.0000  0.0000  0.0000  0.0000  0.0000  0.0000  0.0000  0.0000
atom =  10  type =  3  l = 2
 
 onsite density matrix
 
spin component  1
 
  1.1008  0.0000  0.0000  0.0000  0.0000
  0.0000  1.1008  0.0000  0.0000  0.0000
  0.0000  0.0000  1.1008  0.0000  0.0000
  0.0000  0.0000  0.0000  1.1008  0.0000
  0.0000  0.0000  0.0000  0.0000  1.1008
 
spin component  2
 
  0.5927  0.0000  0.0000  0.0000  0.0000
  0.0000  0.5927  0.0000  0.0000  0.0000
  0.0000  0.0000  0.5927  0.0000  0.0000
  0.0000  0.0000  0.0000  0.5927  0.0000
  0.0000  0.0000  0.0000  0.0000  0.5927
 
 occupancies and eigenvectors
 
  o =  0.5927  v =  0.0000  0.0000  0.0000  0.0000  0.0000  1.0000  0.0000  0.0000  0.0000  0.0000      0.0000  0.0000  0.0000  0.0000  0.0000  0.0000  0.0000  0.0000  0.0000  0.0000
  o =  0.5927  v =  0.0000  0.0000  0.0000  0.0000  0.0000  0.0000  1.0000  0.0000  0.0000  0.0000      0.0000  0.0000  0.0000  0.0000  0.0000  0.0000  0.0000  0.0000  0.0000  0.0000
  o =  0.5927  v =  0.0000  0.0000  0.0000  0.0000  0.0000  0.0000  0.0000  1.0000  0.0000  0.0000      0.0000  0.0000  0.0000  0.0000  0.0000  0.0000  0.0000  0.0000  0.0000  0.0000
  o =  0.5927  v =  0.0000  0.0000  0.0000  0.0000  0.0000  0.0000  0.0000  0.0000  1.0000  0.0000      0.0000  0.0000  0.0000  0.0000  0.0000  0.0000  0.0000  0.0000  0.0000  0.0000
  o =  0.5927  v =  0.0000  0.0000  0.0000  0.0000  0.0000  0.0000  0.0000  0.0000  0.0000  1.0000      0.0000  0.0000  0.0000  0.0000  0.0000  0.0000  0.0000  0.0000  0.0000  0.0000
  o =  1.1008  v =  1.0000  0.0000  0.0000  0.0000  0.0000  0.0000  0.0000  0.0000  0.0000  0.0000      0.0000  0.0000  0.0000  0.0000  0.0000  0.0000  0.0000  0.0000  0.0000  0.0000
  o =  1.1008  v =  0.0000  1.0000  0.0000  0.0000  0.0000  0.0000  0.0000  0.0000  0.0000  0.0000      0.0000  0.0000  0.0000  0.0000  0.0000  0.0000  0.0000  0.0000  0.0000  0.0000
  o =  1.1008  v =  0.0000  0.0000  1.0000  0.0000  0.0000  0.0000  0.0000  0.0000  0.0000  0.0000      0.0000  0.0000  0.0000  0.0000  0.0000  0.0000  0.0000  0.0000  0.0000  0.0000
  o =  1.1008  v =  0.0000  0.0000  0.0000  1.0000  0.0000  0.0000  0.0000  0.0000  0.0000  0.0000      0.0000  0.0000  0.0000  0.0000  0.0000  0.0000  0.0000  0.0000  0.0000  0.0000
  o =  1.1008  v =  0.0000  0.0000  0.0000  0.0000  1.0000  0.0000  0.0000  0.0000  0.0000  0.0000      0.0000  0.0000  0.0000  0.0000  0.0000  0.0000  0.0000  0.0000  0.0000  0.0000
atom =  11  type =  4  l = 0
 
 onsite density matrix
 
spin component  1
 
  0.8190
 
spin component  2
 
  0.8190
 
 occupancies and eigenvectors
 
  o =  0.8190  v =  1.0000  0.0000      0.0000  0.0000
  o =  0.8190  v =  0.0000  1.0000      0.0000  0.0000
atom =  12  type =  4  l = 0
 
 onsite density matrix
 
spin component  1
 
  0.8190
 
spin component  2
 
  0.8190
 
 occupancies and eigenvectors
 
  o =  0.8190  v =  1.0000  0.0000      0.0000  0.0000
  o =  0.8190  v =  0.0000  1.0000      0.0000  0.0000
atom =  13  type =  4  l = 0
 
 onsite density matrix
 
spin component  1
 
  0.8190
 
spin component  2
 
  0.8190
 
 occupancies and eigenvectors
 
  o =  0.8190  v =  1.0000  0.0000      0.0000  0.0000
  o =  0.8190  v =  0.0000  1.0000      0.0000  0.0000
atom =  14  type =  4  l = 0
 
 onsite density matrix
 
spin component  1
 
  0.8190
 
spin component  2
 
  0.8190
 
 occupancies and eigenvectors
 
  o =  0.8190  v =  1.0000  0.0000      0.0000  0.0000
  o =  0.8190  v =  0.0000  1.0000      0.0000  0.0000
atom =  15  type =  4  l = 0
 
 onsite density matrix
 
spin component  1
 
  0.8190
 
spin component  2
 
  0.8190
 
 occupancies and eigenvectors
 
  o =  0.8190  v =  1.0000  0.0000      0.0000  0.0000
  o =  0.8190  v =  0.0000  1.0000      0.0000  0.0000
atom =  16  type =  4  l = 0
 
 onsite density matrix
 
spin component  1
 
  0.8190
 
spin component  2
 
  0.8190
 
 occupancies and eigenvectors
 
  o =  0.8190  v =  1.0000  0.0000      0.0000  0.0000
  o =  0.8190  v =  0.0000  1.0000      0.0000  0.0000
atom =  17  type =  4  l = 0
 
 onsite density matrix
 
spin component  1
 
  0.8190
 
spin component  2
 
  0.8190
 
 occupancies and eigenvectors
 
  o =  0.8190  v =  1.0000  0.0000      0.0000  0.0000
  o =  0.8190  v =  0.0000  1.0000      0.0000  0.0000
atom =  18  type =  4  l = 0
 
 onsite density matrix
 
spin component  1
 
  0.8190
 
spin component  2
 
  0.8190
 
 occupancies and eigenvectors
 
  o =  0.8190  v =  1.0000  0.0000      0.0000  0.0000
  o =  0.8190  v =  0.0000  1.0000      0.0000  0.0000
atom =  19  type =  4  l = 0
 
 onsite density matrix
 
spin component  1
 
  0.8190
 
spin component  2
 
  0.8190
 
 occupancies and eigenvectors
 
  o =  0.8190  v =  1.0000  0.0000      0.0000  0.0000
  o =  0.8190  v =  0.0000  1.0000      0.0000  0.0000
atom =  20  type =  4  l = 0
 
 onsite density matrix
 
spin component  1
 
  0.8190
 
spin component  2
 
  0.8190
 
 occupancies and eigenvectors
 
  o =  0.8190  v =  1.0000  0.0000      0.0000  0.0000
  o =  0.8190  v =  0.0000  1.0000      0.0000  0.0000
atom =  21  type =  4  l = 0
 
 onsite density matrix
 
spin component  1
 
  0.8190
 
spin component  2
 
  0.8190
 
 occupancies and eigenvectors
 
  o =  0.8190  v =  1.0000  0.0000      0.0000  0.0000
  o =  0.8190  v =  0.0000  1.0000      0.0000  0.0000
atom =  22  type =  4  l = 0
 
 onsite density matrix
 
spin component  1
 
  0.8190
 
spin component  2
 
  0.8190
 
 occupancies and eigenvectors
 
  o =  0.8190  v =  1.0000  0.0000      0.0000  0.0000
  o =  0.8190  v =  0.0000  1.0000      0.0000  0.0000
atom =  23  type =  4  l = 0
 
 onsite density matrix
 
spin component  1
 
  0.8190
 
spin component  2
 
  0.8190
 
 occupancies and eigenvectors
 
  o =  0.8190  v =  1.0000  0.0000      0.0000  0.0000
  o =  0.8190  v =  0.0000  1.0000      0.0000  0.0000
atom =  24  type =  4  l = 0
 
 onsite density matrix
 
spin component  1
 
  0.8190
 
spin component  2
 
  0.8190
 
 occupancies and eigenvectors
 
  o =  0.8190  v =  1.0000  0.0000      0.0000  0.0000
  o =  0.8190  v =  0.0000  1.0000      0.0000  0.0000
atom =  25  type =  4  l = 0
 
 onsite density matrix
 
spin component  1
 
  0.8190
 
spin component  2
 
  0.8190
 
 occupancies and eigenvectors
 
  o =  0.8190  v =  1.0000  0.0000      0.0000  0.0000
  o =  0.8190  v =  0.0000  1.0000      0.0000  0.0000
     EDDAV:  cpu time    2.1863: real time    2.1976
 BZINTS: Fermi energy: 29.729789;183.000000 electrons
         Band energy:2644.088694;  BLOECHL correction: -0.210434
       DOS:  cpu time    0.0145: real time    0.0146
    --------------------------------------------
      LOOP:  cpu time    2.2783: real time    2.2936

 eigenvalue-minimisations  :  4616
 total energy-change (2. order) : 0.2897911E+04  (-0.6446950E+04)
 number of electron     183.0000000 magnetization      19.0000000
 augmentation part      183.0000000 magnetization      19.0000000

 Free energy of the ion-electron system (eV)
  ---------------------------------------------------
  alpha Z        PSCENC =       801.66733255
  Ewald energy   TEWEN  =    -12182.23390069
  -Hartree energ DENC   =     -2510.16487531
  -exchange      EXHF   =         0.00000000
  -V(xc)+E(xc)   XCENC  =       562.76143602
  PAW double counting   =     10999.04824198   -10977.18021641
  entropy T*S    EENTRO =         0.00000000
  eigenvalues    EBANDS =      2644.08869445
  atomic energy  EATOM  =     13559.92437808
  Solvation  Ediel_sol  =         0.00000000
  ---------------------------------------------------
  free energy    TOTEN  =      2897.91109066 eV

  energy without entropy =     2897.91109066  energy(sigma->0) =     2897.91109066


--------------------------------------------------------------------------------------------------------




--------------------------------------- Iteration      1(   2)  ---------------------------------------


     EDDAV:  cpu time    2.2607: real time    2.2733
 BZINTS: Fermi energy: 15.894493;183.000000 electrons
         Band energy: 715.194560;  BLOECHL correction: -0.027867
       DOS:  cpu time    0.0161: real time    0.0162
    --------------------------------------------
      LOOP:  cpu time    2.2768: real time    2.2894

 eigenvalue-minimisations  :  4864
 total energy-change (2. order) :-0.1928894E+04  (-0.1732358E+04)
 number of electron     183.0000000 magnetization      19.0000000
 augmentation part      183.0000000 magnetization      19.0000000

 Free energy of the ion-electron system (eV)
  ---------------------------------------------------
  alpha Z        PSCENC =       801.66733255
  Ewald energy   TEWEN  =    -12182.23390069
  -Hartree energ DENC   =     -2510.16487531
  -exchange      EXHF   =         0.00000000
  -V(xc)+E(xc)   XCENC  =       562.76143602
  PAW double counting   =     10999.04824198   -10977.18021641
  entropy T*S    EENTRO =         0.00000000
  eigenvalues    EBANDS =       715.19455962
  atomic energy  EATOM  =     13559.92437808
  Solvation  Ediel_sol  =         0.00000000
  ---------------------------------------------------
  free energy    TOTEN  =       969.01695583 eV

  energy without entropy =      969.01695583  energy(sigma->0) =      969.01695583


--------------------------------------------------------------------------------------------------------




--------------------------------------- Iteration      1(   3)  ---------------------------------------


     EDDAV:  cpu time    2.4213: real time    2.4325
 BZINTS: Fermi energy: 11.755024;183.000000 electrons
         Band energy: -71.728845;  BLOECHL correction: -0.028274
       DOS:  cpu time    0.0164: real time    0.0164
    --------------------------------------------
      LOOP:  cpu time    2.4377: real time    2.4489

 eigenvalue-minimisations  :  5192
 total energy-change (2. order) :-0.7869234E+03  (-0.7155151E+03)
 number of electron     183.0000000 magnetization      19.0000000
 augmentation part      183.0000000 magnetization      19.0000000

 Free energy of the ion-electron system (eV)
  ---------------------------------------------------
  alpha Z        PSCENC =       801.66733255
  Ewald energy   TEWEN  =    -12182.23390069
  -Hartree energ DENC   =     -2510.16487531
  -exchange      EXHF   =         0.00000000
  -V(xc)+E(xc)   XCENC  =       562.76143602
  PAW double counting   =     10999.04824198   -10977.18021641
  entropy T*S    EENTRO =         0.00000000
  eigenvalues    EBANDS =       -71.72884500
  atomic energy  EATOM  =     13559.92437808
  Solvation  Ediel_sol  =         0.00000000
  ---------------------------------------------------
  free energy    TOTEN  =       182.09355122 eV

  energy without entropy =      182.09355122  energy(sigma->0) =      182.09355122


--------------------------------------------------------------------------------------------------------




--------------------------------------- Iteration      1(   4)  ---------------------------------------


     EDDAV:  cpu time    3.6361: real time    3.6555
 BZINTS: Fermi energy: 11.058718;183.000000 electrons
         Band energy:-403.264573;  BLOECHL correction: -0.006192
       DOS:  cpu time    0.0169: real time    0.0170
    --------------------------------------------
      LOOP:  cpu time    3.6530: real time    3.6724

 eigenvalue-minimisations  :  6976
 total energy-change (2. order) :-0.3315357E+03  (-0.3112215E+03)
 number of electron     183.0000000 magnetization      19.0000000
 augmentation part      183.0000000 magnetization      19.0000000

 Free energy of the ion-electron system (eV)
  ---------------------------------------------------
  alpha Z        PSCENC =       801.66733255
  Ewald energy   TEWEN  =    -12182.23390069
  -Hartree energ DENC   =     -2510.16487531
  -exchange      EXHF   =         0.00000000
  -V(xc)+E(xc)   XCENC  =       562.76143602
  PAW double counting   =     10999.04824198   -10977.18021641
  entropy T*S    EENTRO =         0.00000000
  eigenvalues    EBANDS =      -403.26457265
  atomic energy  EATOM  =     13559.92437808
  Solvation  Ediel_sol  =         0.00000000
  ---------------------------------------------------
  free energy    TOTEN  =      -149.44217643 eV

  energy without entropy =     -149.44217643  energy(sigma->0) =     -149.44217643


--------------------------------------------------------------------------------------------------------




--------------------------------------- Iteration      1(   5)  ---------------------------------------


     EDDAV:  cpu time    3.5896: real time    3.6093
 BZINTS: Fermi energy: 10.702753;183.000000 electrons
         Band energy:-472.553180;  BLOECHL correction: -0.077256
       DOS:  cpu time    0.0157: real time    0.0158
    CHARGE:  cpu time    0.1117: real time    0.1122
    MIXING:  cpu time    0.0030: real time    0.0033
    --------------------------------------------
      LOOP:  cpu time    3.7201: real time    3.7405

 eigenvalue-minimisations  :  7872
 total energy-change (2. order) :-0.6928861E+02  (-0.6722793E+02)
 number of electron     182.9999988 magnetization      18.1654137
 augmentation part       19.7496019 magnetization      12.4541787

 Broyden mixing:
  rms(total) = 0.61518E+01    rms(broyden)= 0.61514E+01
  rms(prec ) = 0.67340E+01
  weight for this iteration     100.00

 Free energy of the ion-electron system (eV)
  ---------------------------------------------------
  alpha Z        PSCENC =       801.66733255
  Ewald energy   TEWEN  =    -12182.23390069
  -Hartree energ DENC   =     -2510.16487531
  -exchange      EXHF   =         0.00000000
  -V(xc)+E(xc)   XCENC  =       562.76143602
  PAW double counting   =     10999.04824198   -10977.18021641
  entropy T*S    EENTRO =         0.00000000
  eigenvalues    EBANDS =      -472.55317989
  atomic energy  EATOM  =     13559.92437808
  Solvation  Ediel_sol  =         0.00000000
  ---------------------------------------------------
  free energy    TOTEN  =      -218.73078367 eV

  energy without entropy =     -218.73078367  energy(sigma->0) =     -218.73078367


--------------------------------------------------------------------------------------------------------




--------------------------------------- Iteration      1(   6)  ---------------------------------------


    POTLOK:  cpu time    0.0605: real time    0.0628
    SETDIJ:  cpu time    0.0123: real time    0.0123
atom =   1  type =  1  l = 0
 
 onsite density matrix
 
spin component  1
 
  1.0563
 
spin component  2
 
  1.0557
 
 occupancies and eigenvectors
 
  o =  1.0557  v =  0.0000  1.0000      0.0000  0.0000
  o =  1.0563  v =  1.0000  0.0000      0.0000  0.0000
atom =   2  type =  1  l = 0
 
 onsite density matrix
 
spin component  1
 
  1.0570
 
spin component  2
 
  1.0567
 
 occupancies and eigenvectors
 
  o =  1.0567  v =  0.0000  1.0000      0.0000  0.0000
  o =  1.0570  v =  1.0000  0.0000      0.0000  0.0000
atom =   3  type =  1  l = 0
 
 onsite density matrix
 
spin component  1
 
  1.0561
 
spin component  2
 
  1.0562
 
 occupancies and eigenvectors
 
  o =  1.0561  v =  1.0000  0.0000      0.0000  0.0000
  o =  1.0562  v =  0.0000  1.0000      0.0000  0.0000
atom =   4  type =  1  l = 0
 
 onsite density matrix
 
spin component  1
 
  1.0561
 
spin component  2
 
  1.0562
 
 occupancies and eigenvectors
 
  o =  1.0561  v =  1.0000  0.0000      0.0000  0.0000
  o =  1.0562  v =  0.0000  1.0000      0.0000  0.0000
atom =   5  type =  1  l = 0
 
 onsite density matrix
 
spin component  1
 
  1.0570
 
spin component  2
 
  1.0567
 
 occupancies and eigenvectors
 
  o =  1.0567  v =  0.0000  1.0000      0.0000  0.0000
  o =  1.0570  v =  1.0000  0.0000      0.0000  0.0000
atom =   6  type =  2  l = 2
 
 onsite density matrix
 
spin component  1
 
  0.9701  0.0000  0.0000  0.0028  0.0000
  0.0000  0.9693 -0.0027  0.0000  0.0046
  0.0000 -0.0027  0.4960  0.0000  0.0160
  0.0028  0.0000  0.0000  0.9701  0.0000
  0.0000  0.0046  0.0160  0.0000  0.4776
 
spin component  2
 
  0.0145  0.0000  0.0000 -0.0019  0.0000
  0.0000  0.0154  0.0013  0.0000 -0.0023
  0.0000  0.0013  0.3487  0.0000 -0.0100
 -0.0019  0.0000  0.0000  0.0145  0.0000
  0.0000 -0.0023 -0.0100  0.0000  0.3602
 
 occupancies and eigenvectors
 
  o =  0.0126  v =  0.0000  0.0000  0.0000  0.0000  0.0000 -0.7071  0.0000  0.0000 -0.7071  0.0000      0.0000  0.0000  0.0000  0.0000  0.0000  0.0000  0.0000  0.0000  0.0000  0.0000
  o =  0.0153  v =  0.0000  0.0000  0.0000  0.0000  0.0000  0.0000  1.0000 -0.0038  0.0000  0.0066      0.0000  0.0000  0.0000  0.0000  0.0000  0.0000  0.0000  0.0000  0.0000  0.0000
  o =  0.0164  v =  0.0000  0.0000  0.0000  0.0000  0.0000 -0.7071  0.0000  0.0000  0.7071  0.0000      0.0000  0.0000  0.0000  0.0000  0.0000  0.0000  0.0000  0.0000  0.0000  0.0000
  o =  0.3429  v =  0.0000  0.0000  0.0000  0.0000  0.0000  0.0000  0.0000 -0.8660  0.0000 -0.5000      0.0000  0.0000  0.0000  0.0000  0.0000  0.0000  0.0000  0.0000  0.0000  0.0000
  o =  0.3660  v =  0.0000  0.0000  0.0000  0.0000  0.0000  0.0000 -0.0076 -0.5000  0.0000  0.8660      0.0000  0.0000  0.0000  0.0000  0.0000  0.0000  0.0000  0.0000  0.0000  0.0000
  o =  0.4683  v =  0.0000 -0.0106 -0.5000  0.0000  0.8660  0.0000  0.0000  0.0000  0.0000  0.0000      0.0000  0.0000  0.0000  0.0000  0.0000  0.0000  0.0000  0.0000  0.0000  0.0000
  o =  0.5052  v =  0.0000 -0.0000  0.8660  0.0000  0.5000  0.0000  0.0000  0.0000  0.0000  0.0000      0.0000  0.0000  0.0000  0.0000  0.0000  0.0000  0.0000  0.0000  0.0000  0.0000
  o =  0.9672  v = -0.7071  0.0000  0.0000  0.7071  0.0000  0.0000  0.0000  0.0000  0.0000  0.0000      0.0000  0.0000  0.0000  0.0000  0.0000  0.0000  0.0000  0.0000  0.0000  0.0000
  o =  0.9694  v =  0.0000  0.9999 -0.0053  0.0000  0.0092  0.0000  0.0000  0.0000  0.0000  0.0000      0.0000  0.0000  0.0000  0.0000  0.0000  0.0000  0.0000  0.0000  0.0000  0.0000
  o =  0.9729  v = -0.7071  0.0000  0.0000 -0.7071  0.0000  0.0000  0.0000  0.0000  0.0000  0.0000      0.0000  0.0000  0.0000  0.0000  0.0000  0.0000  0.0000  0.0000  0.0000  0.0000
atom =   7  type =  2  l = 2
 
 onsite density matrix
 
spin component  1
 
  0.9687  0.0000  0.0000  0.0028  0.0000
  0.0000  0.9620 -0.0042  0.0000  0.0073
  0.0000 -0.0042  0.4085  0.0000 -0.0334
  0.0028  0.0000  0.0000  0.9687  0.0000
  0.0000  0.0073 -0.0334  0.0000  0.4471
 
spin component  2
 
  0.0203  0.0000  0.0000 -0.0014  0.0000
  0.0000  0.0278  0.0025  0.0000 -0.0043
  0.0000  0.0025  0.4104  0.0000  0.0233
 -0.0014  0.0000  0.0000  0.0203  0.0000
  0.0000 -0.0043  0.0233  0.0000  0.3836
 
 occupancies and eigenvectors
 
  o =  0.0189  v =  0.0000  0.0000  0.0000  0.0000  0.0000 -0.7071  0.0000  0.0000 -0.7071  0.0000      0.0000  0.0000  0.0000  0.0000  0.0000  0.0000  0.0000  0.0000  0.0000  0.0000
  o =  0.0218  v =  0.0000  0.0000  0.0000  0.0000  0.0000 -0.7071  0.0000  0.0000  0.7071  0.0000      0.0000  0.0000  0.0000  0.0000  0.0000  0.0000  0.0000  0.0000  0.0000  0.0000
  o =  0.0277  v =  0.0000  0.0000  0.0000  0.0000  0.0000  0.0000 -0.9999  0.0073  0.0000 -0.0127      0.0000  0.0000  0.0000  0.0000  0.0000  0.0000  0.0000  0.0000  0.0000  0.0000
  o =  0.3702  v =  0.0000  0.0000  0.0000  0.0000  0.0000  0.0000 -0.0146 -0.4999  0.0000  0.8659      0.0000  0.0000  0.0000  0.0000  0.0000  0.0000  0.0000  0.0000  0.0000  0.0000
  o =  0.3892  v =  0.0000 -0.0000  0.8660 -0.0000  0.5000  0.0000  0.0000  0.0000  0.0000  0.0000      0.0000  0.0000  0.0000  0.0000  0.0000  0.0000  0.0000  0.0000  0.0000  0.0000
  o =  0.4239  v =  0.0000  0.0000  0.0000  0.0000  0.0000  0.0000  0.0000 -0.8660  0.0000 -0.5000      0.0000  0.0000  0.0000  0.0000  0.0000  0.0000  0.0000  0.0000  0.0000  0.0000
  o =  0.4662  v =  0.0000 -0.0169 -0.4999 -0.0000  0.8659  0.0000  0.0000  0.0000  0.0000  0.0000      0.0000  0.0000  0.0000  0.0000  0.0000  0.0000  0.0000  0.0000  0.0000  0.0000
  o =  0.9622  v =  0.0000 -0.9999  0.0085 -0.0000 -0.0146  0.0000  0.0000  0.0000  0.0000  0.0000      0.0000  0.0000  0.0000  0.0000  0.0000  0.0000  0.0000  0.0000  0.0000  0.0000
  o =  0.9659  v = -0.7071 -0.0000  0.0000  0.7071 -0.0000  0.0000  0.0000  0.0000  0.0000  0.0000      0.0000  0.0000  0.0000  0.0000  0.0000  0.0000  0.0000  0.0000  0.0000  0.0000
  o =  0.9715  v = -0.7071  0.0000 -0.0000 -0.7071  0.0000  0.0000  0.0000  0.0000  0.0000  0.0000      0.0000  0.0000  0.0000  0.0000  0.0000  0.0000  0.0000  0.0000  0.0000  0.0000
atom =   8  type =  2  l = 2
 
 onsite density matrix
 
spin component  1
 
  0.9701  0.0000  0.0000  0.0028  0.0000
  0.0000  0.9693 -0.0027  0.0000  0.0046
  0.0000 -0.0027  0.4960  0.0000  0.0160
  0.0028  0.0000  0.0000  0.9701  0.0000
  0.0000  0.0046  0.0160  0.0000  0.4776
 
spin component  2
 
  0.0145  0.0000  0.0000 -0.0019  0.0000
  0.0000  0.0154  0.0013  0.0000 -0.0023
  0.0000  0.0013  0.3487  0.0000 -0.0100
 -0.0019  0.0000  0.0000  0.0145  0.0000
  0.0000 -0.0023 -0.0100  0.0000  0.3602
 
 occupancies and eigenvectors
 
  o =  0.0126  v =  0.0000  0.0000  0.0000  0.0000  0.0000 -0.7071  0.0000  0.0000 -0.7071  0.0000      0.0000  0.0000  0.0000  0.0000  0.0000  0.0000  0.0000  0.0000  0.0000  0.0000
  o =  0.0153  v =  0.0000  0.0000  0.0000  0.0000  0.0000  0.0000  1.0000 -0.0038  0.0000  0.0066      0.0000  0.0000  0.0000  0.0000  0.0000  0.0000  0.0000  0.0000  0.0000  0.0000
  o =  0.0164  v =  0.0000  0.0000  0.0000  0.0000  0.0000 -0.7071  0.0000  0.0000  0.7071  0.0000      0.0000  0.0000  0.0000  0.0000  0.0000  0.0000  0.0000  0.0000  0.0000  0.0000
  o =  0.3429  v =  0.0000  0.0000  0.0000  0.0000  0.0000  0.0000 -0.0000 -0.8660  0.0000 -0.5000      0.0000  0.0000  0.0000  0.0000  0.0000  0.0000  0.0000  0.0000  0.0000  0.0000
  o =  0.3660  v =  0.0000  0.0000  0.0000  0.0000  0.0000  0.0000 -0.0076 -0.5000  0.0000  0.8660      0.0000  0.0000  0.0000  0.0000  0.0000  0.0000  0.0000  0.0000  0.0000  0.0000
  o =  0.4683  v =  0.0000 -0.0106 -0.5000 -0.0000  0.8660  0.0000  0.0000  0.0000  0.0000  0.0000      0.0000  0.0000  0.0000  0.0000  0.0000  0.0000  0.0000  0.0000  0.0000  0.0000
  o =  0.5052  v = -0.0000  0.0000  0.8660  0.0000  0.5000  0.0000  0.0000  0.0000  0.0000  0.0000      0.0000  0.0000  0.0000  0.0000  0.0000  0.0000  0.0000  0.0000  0.0000  0.0000
  o =  0.9672  v = -0.7071  0.0000 -0.0000  0.7071  0.0000  0.0000  0.0000  0.0000  0.0000  0.0000      0.0000  0.0000  0.0000  0.0000  0.0000  0.0000  0.0000  0.0000  0.0000  0.0000
  o =  0.9694  v = -0.0000 -0.9999  0.0053  0.0000 -0.0092  0.0000  0.0000  0.0000  0.0000  0.0000      0.0000  0.0000  0.0000  0.0000  0.0000  0.0000  0.0000  0.0000  0.0000  0.0000
  o =  0.9729  v = -0.7071  0.0000 -0.0000 -0.7071  0.0000  0.0000  0.0000  0.0000  0.0000  0.0000      0.0000  0.0000  0.0000  0.0000  0.0000  0.0000  0.0000  0.0000  0.0000  0.0000
atom =   9  type =  2  l = 2
 
 onsite density matrix
 
spin component  1
 
  0.9687  0.0000  0.0000  0.0028  0.0000
  0.0000  0.9620 -0.0042  0.0000  0.0073
  0.0000 -0.0042  0.4085  0.0000 -0.0334
  0.0028  0.0000  0.0000  0.9687  0.0000
  0.0000  0.0073 -0.0334  0.0000  0.4471
 
spin component  2
 
  0.0203  0.0000  0.0000 -0.0014  0.0000
  0.0000  0.0278  0.0025  0.0000 -0.0043
  0.0000  0.0025  0.4104  0.0000  0.0233
 -0.0014  0.0000  0.0000  0.0203  0.0000
  0.0000 -0.0043  0.0233  0.0000  0.3836
 
 occupancies and eigenvectors
 
  o =  0.0189  v =  0.0000  0.0000  0.0000  0.0000  0.0000 -0.7071  0.0000  0.0000 -0.7071  0.0000      0.0000  0.0000  0.0000  0.0000  0.0000  0.0000  0.0000  0.0000  0.0000  0.0000
  o =  0.0218  v =  0.0000  0.0000  0.0000  0.0000  0.0000 -0.7071  0.0000  0.0000  0.7071  0.0000      0.0000  0.0000  0.0000  0.0000  0.0000  0.0000  0.0000  0.0000  0.0000  0.0000
  o =  0.0277  v =  0.0000  0.0000  0.0000  0.0000  0.0000  0.0000 -0.9999  0.0073  0.0000 -0.0127      0.0000  0.0000  0.0000  0.0000  0.0000  0.0000  0.0000  0.0000  0.0000  0.0000
  o =  0.3702  v =  0.0000  0.0000  0.0000  0.0000  0.0000  0.0000 -0.0146 -0.4999  0.0000  0.8659      0.0000  0.0000  0.0000  0.0000  0.0000  0.0000  0.0000  0.0000  0.0000  0.0000
[...]
  0.000   0.000   0.000   0.000   0.000   0.000   0.000   0.000   0.000   0.000   0.000  -0.000   0.000   0.000   0.000   0.000
 -0.000  -0.000   0.000   0.000   0.000   0.000  -0.000   0.000   0.000   0.000  -0.000   0.000   0.000   0.000   0.000   0.000
 -0.000   0.000   0.000   0.000   0.000  -0.000   0.000   0.000   0.000   0.000  -0.000   0.000   0.000   0.000   0.000   0.000
  0.000   0.000   0.000   0.000   0.000   0.000   0.000   0.000  -0.000   0.000   0.000   0.000   0.000   0.000   0.000   0.000
  0.000   0.000   0.000   0.000  -0.000   0.000   0.000  -0.000  -0.003   0.000   0.000  -0.013   0.000   0.002   0.000   0.000
 -0.000  -0.004   0.000   0.000   0.000   0.000   0.000   0.000   0.000  -0.003   0.006   0.000  -0.011   0.000   0.002  -0.002
 -0.000  -0.001  -0.000   0.000   0.000  -0.000  -0.000   0.000   0.000   0.006   0.022   0.000  -0.000   0.000  -0.002  -0.008
  0.000   0.000   0.000   0.000  -0.000   0.000   0.000   0.000  -0.013   0.000   0.000  -0.003   0.000   0.005   0.000   0.000
  0.000   0.002   0.000   0.000   0.000  -0.000   0.000   0.000   0.000  -0.011  -0.000   0.000   0.022   0.000   0.004   0.000
  0.000   0.000   0.000   0.000   0.000   0.000   0.000  -0.000   0.002   0.000   0.000   0.005   0.000  -0.001   0.000   0.000
  0.000   0.002   0.000   0.000   0.000   0.000   0.000   0.000   0.000   0.002  -0.002   0.000   0.004   0.000  -0.001   0.001
  0.000   0.000   0.000   0.000   0.000   0.000   0.000   0.000   0.000  -0.002  -0.008   0.000   0.000   0.000   0.001   0.003
  0.000   0.000   0.000   0.000   0.000   0.000   0.000   0.000   0.005   0.000   0.000   0.002   0.000  -0.002   0.000   0.000
 -0.000  -0.001   0.000   0.000   0.000   0.000   0.000   0.000   0.000   0.004   0.000   0.000  -0.008   0.000  -0.001  -0.000
  0.000  -0.000   0.000   0.000   0.000   0.000   0.000   0.000   0.000   0.000   0.000   0.000   0.000   0.000   0.000  -0.000
  0.000   0.000   0.000   0.000   0.001   0.000   0.000   0.001   0.000   0.000   0.000   0.000   0.000   0.000   0.000   0.000
  0.000   0.000   0.000  -0.000   0.000   0.000  -0.000   0.000   0.000  -0.000   0.000   0.000   0.000   0.000   0.000   0.000
  0.000   0.000  -0.000  -0.000   0.000  -0.000  -0.000   0.000   0.000   0.000   0.000   0.000   0.000   0.000   0.000   0.000
  0.000   0.000   0.000   0.000   0.000   0.000   0.000   0.000   0.000   0.000   0.000   0.000   0.000  -0.000   0.000   0.000
  0.000  -0.000   0.000  -0.000   0.000   0.000  -0.000   0.000   0.000   0.000  -0.000   0.000   0.000   0.000   0.000   0.000
  0.000   0.000   0.000   0.000  -0.000   0.000   0.000  -0.000  -0.000   0.000   0.000   0.000   0.000   0.000   0.000   0.000
  0.000  -0.000   0.000   0.000   0.000  -0.001  -0.001   0.000   0.000   0.000   0.000   0.000  -0.000   0.000   0.000   0.000
  0.000   0.000   0.000   0.000   0.001   0.000   0.000  -0.001  -0.000   0.000   0.000   0.000   0.000  -0.000   0.000   0.000
  0.000  -0.000   0.000   0.000   0.000  -0.001   0.000   0.000   0.000   0.000   0.000   0.000   0.000   0.000   0.000   0.000
  0.000   0.000  -0.000  -0.000   0.000   0.000   0.001   0.000   0.000   0.000   0.000   0.000   0.000   0.000  -0.000   0.000
  0.000   0.000   0.000   0.000   0.000   0.000   0.000  -0.001  -0.000   0.000   0.000   0.000   0.000  -0.000   0.000   0.000
  0.000   0.000  -0.000  -0.000   0.000  -0.001   0.000   0.000   0.000   0.000  -0.000   0.000   0.000   0.000   0.000   0.000
  0.000   0.000   0.000   0.000  -0.000   0.000   0.000   0.001   0.000   0.000   0.000  -0.000   0.000   0.000   0.000   0.000


------------------------ aborting loop because EDIFF is reached ----------------------------------------


 


 total charge     
 
# of ion       s       p       d       f       tot
--------------------------------------------------
    1        1.998   5.694   0.469   0.182   8.343
    2        2.000   5.694   0.482   0.186   8.362
    3        1.999   5.696   0.476   0.184   8.355
    4        1.999   5.696   0.476   0.184   8.355
    5        2.000   5.694   0.482   0.186   8.362
    6        0.307   0.453   4.892   0.000   5.652
    7        0.330   0.510   4.872   0.000   5.713
    8        0.307   0.453   4.892   0.000   5.652
    9        0.330   0.510   4.872   0.000   5.713
   10        0.389   0.554   8.324   0.000   9.268
   11        1.563   3.458   0.000   0.000   5.021
   12        1.565   3.451   0.000   0.000   5.016
   13        1.563   3.458   0.000   0.000   5.021
   14        1.560   3.457   0.000   0.000   5.017
   15        1.560   3.457   0.000   0.000   5.017
   16        1.563   3.457   0.000   0.000   5.020
   17        1.566   3.449   0.000   0.000   5.014
   18        1.563   3.457   0.000   0.000   5.020
   19        1.560   3.457   0.000   0.000   5.017
   20        1.560   3.457   0.000   0.000   5.017
   21        1.565   3.453   0.000   0.000   5.018
   22        1.563   3.450   0.000   0.000   5.012
   23        1.563   3.450   0.000   0.000   5.013
   24        1.565   3.454   0.000   0.000   5.019
   25        1.555   3.458   0.000   0.000   5.013
--------------------------------------------------
tot         35.093  82.777  30.238   0.922 149.031

 


 magnetization (x)
 
# of ion       s       p       d       f       tot
--------------------------------------------------
    1        0.000   0.000   0.007   0.004   0.011
    2        0.001   0.001   0.009   0.005   0.015
    3        0.001   0.001   0.013   0.007   0.022
    4        0.001   0.001   0.013   0.007   0.022
    5        0.001   0.001   0.009   0.005   0.015
    6        0.024   0.022   3.847   0.000   3.893
    7        0.026   0.033   3.606   0.000   3.665
    8        0.025   0.022   3.847   0.000   3.894
    9        0.026   0.033   3.606   0.000   3.665
   10        0.012   0.004   1.717   0.000   1.733
   11        0.005  -0.032   0.000   0.000  -0.027
   12        0.006  -0.058   0.000   0.000  -0.051
   13        0.005  -0.032   0.000   0.000  -0.027
   14        0.005  -0.006   0.000   0.000  -0.001
   15        0.005  -0.006   0.000   0.000  -0.001
   16        0.005  -0.033   0.000   0.000  -0.028
   17        0.006  -0.060   0.000   0.000  -0.053
   18        0.005  -0.033   0.000   0.000  -0.028
   19        0.005  -0.007   0.000   0.000  -0.001
   20        0.005  -0.007   0.000   0.000  -0.001
   21        0.007  -0.040   0.000   0.000  -0.033
   22        0.004  -0.045   0.000   0.000  -0.041
   23        0.005  -0.045   0.000   0.000  -0.040
   24        0.007  -0.039   0.000   0.000  -0.033
   25        0.006   0.033   0.000   0.000   0.040
--------------------------------------------------
tot          0.198  -0.292  16.673   0.030  16.608

 
    CHARGE:  cpu time    0.1131: real time    0.1133
    FORLOC:  cpu time    0.0085: real time    0.0085
    FORNL :  cpu time    0.5966: real time    0.6001
    STRESS:  cpu time    1.8136: real time    1.8219
    FORCOR:  cpu time    0.0676: real time    0.0678
    FORHAR:  cpu time    0.0145: real time    0.0146
    MIXING:  cpu time    0.0060: real time    0.0060
    OFIELD:  cpu time    0.0001: real time    0.0002

  FORCE on cell =-STRESS in cart. coord.  units (eV):
  Direction    XX          YY          ZZ          XY          YZ          ZX
  --------------------------------------------------------------------------------------
  Alpha Z   801.66733   801.66733   801.66733
  Ewald   -4015.98622 -4083.13954 -4083.13954     0.00000   -42.82856    -0.00000
  Hartree   919.59627   842.71866   842.71869    -0.00000   -46.31120    -0.00000
  E(xc)    -840.98725  -841.09378  -841.09379    -0.00000     0.02390    -0.00000
  Local    -570.53068  -422.29780  -422.29751     0.00000    89.16001    -0.00000
  n-local   326.05636   327.04793   326.98032    -0.34192    -0.36734     0.37736
  augment   190.45062   188.96769   188.96750     0.00000    -0.02203    -0.00000
  Kinetic  3188.52970  3185.66523  3186.15745     0.59210     0.31013    -0.73001
  Fock        0.00000     0.00000     0.00000     0.00000     0.00000     0.00000
  -------------------------------------------------------------------------------------
  Total      -1.20388    -0.25191    -0.25191     0.00000    -0.03198     0.00000
  in kB      -6.39729    -1.33861    -1.33861     0.00000    -0.16992     0.00000
  external pressure =       -3.02 kB  Pullay stress =        0.00 kB


 VOLUME and BASIS-vectors are now :
 -----------------------------------------------------------------------------
  energy-cutoff  :      520.00
  volume of cell :      301.51
      direct lattice vectors                 reciprocal lattice vectors
     3.936237043  0.000000000  0.000000000     0.254049741  0.000000000  0.000000000
     0.000000000  3.913739800 -3.913739800     0.000000000  0.153302467 -0.102207621
     0.000000000  7.828852999 11.742592798     0.000000000  0.051094846  0.051094846

  length of vectors
     3.936237043  5.534863904 14.113094094     0.254049741  0.184249950  0.072259024


 FORCES acting on ions
    electron-ion (+dipol)            ewald-force                    non-local-force                 convergence-correction
 -----------------------------------------------------------------------------------------------
   -.437E-14 -.292E-04 -.260E-04   0.168E-13 -.500E-11 -.189E-10   0.000E+00 -.434E-18 0.651E-18   0.180E-13 0.311E-05 0.237E-05
   0.723E-15 -.124E+03 -.124E+03   0.304E-13 0.123E+03 0.123E+03   0.000E+00 0.967E+00 0.967E+00   0.202E-13 0.431E-01 0.431E-01
   -.575E-14 -.361E+02 -.361E+02   -.156E-13 0.361E+02 0.361E+02   0.000E+00 0.155E+00 0.155E+00   0.357E-13 -.563E-01 -.563E-01
   0.258E-16 0.361E+02 0.361E+02   0.691E-14 -.361E+02 -.361E+02   0.000E+00 -.155E+00 -.155E+00   0.101E-13 0.563E-01 0.563E-01
   -.184E-14 0.124E+03 0.124E+03   -.271E-13 -.123E+03 -.123E+03   0.000E+00 -.967E+00 -.967E+00   0.134E-13 -.431E-01 -.431E-01
   0.457E-13 0.907E+01 0.907E+01   -.519E-13 -.922E+01 -.922E+01   0.000E+00 0.105E+00 0.105E+00   0.647E-14 0.388E-01 0.388E-01
   0.529E-13 0.460E+02 0.460E+02   0.305E-13 -.458E+02 -.458E+02   0.000E+00 -.307E+00 -.307E+00   -.593E-14 -.122E-01 -.122E-01
   0.525E-13 -.907E+01 -.907E+01   0.512E-13 0.922E+01 0.922E+01   0.000E+00 -.105E+00 -.105E+00   0.229E-13 -.388E-01 -.388E-01
   0.629E-13 -.460E+02 -.460E+02   -.741E-13 0.458E+02 0.458E+02   0.000E+00 0.307E+00 0.307E+00   0.110E-13 0.122E-01 0.122E-01
   0.284E-12 0.397E-04 -.378E-04   0.269E-13 -.387E-10 -.533E-10   0.000E+00 0.678E-20 -.678E-20   0.588E-13 0.220E-05 0.224E-05
   0.114E-12 0.210E+02 0.485E+02   -.867E-14 -.203E+02 -.504E+02   0.000E+00 -.699E+00 0.190E+01   0.340E-13 0.158E-01 0.338E-01
   0.115E-12 0.345E-04 -.139E-04   0.142E-14 -.295E-11 -.465E-10   0.000E+00 0.542E-19 0.217E-18   0.198E-13 -.923E-06 -.896E-06
   0.110E-12 -.210E+02 -.485E+02   -.122E-13 0.203E+02 0.504E+02   0.000E+00 0.699E+00 -.190E+01   0.184E-13 -.158E-01 -.338E-01
   0.114E-12 -.182E+02 -.716E+02   0.127E-13 0.176E+02 0.672E+02   0.000E+00 0.560E+00 0.430E+01   0.226E-13 0.501E-02 0.107E+00
   0.119E-12 0.182E+02 0.716E+02   -.227E-13 -.176E+02 -.672E+02   0.000E+00 -.560E+00 -.430E+01   0.280E-13 -.500E-02 -.107E+00
   0.119E-12 0.485E+02 0.210E+02   0.967E-14 -.504E+02 -.203E+02   0.000E+00 0.190E+01 -.699E+00   0.327E-14 0.338E-01 0.158E-01
   0.115E-12 0.324E-04 -.113E-04   -.460E-14 -.258E-10 0.106E-10   0.000E+00 0.000E+00 -.108E-18   0.141E-13 -.894E-06 -.919E-06
   0.116E-12 -.485E+02 -.210E+02   0.206E-13 0.504E+02 0.203E+02   0.000E+00 -.190E+01 0.699E+00   0.171E-13 -.338E-01 -.158E-01
   0.118E-12 -.716E+02 -.182E+02   -.236E-13 0.672E+02 0.176E+02   0.000E+00 0.430E+01 0.560E+00   0.174E-13 0.107E+00 0.501E-02
   0.123E-12 0.716E+02 0.182E+02   0.139E-13 -.672E+02 -.176E+02   0.000E+00 -.430E+01 -.560E+00   0.121E-13 -.107E+00 -.500E-02
   -.422E-14 0.395E+02 0.395E+02   0.148E-13 -.395E+02 -.395E+02   0.000E+00 0.122E+00 0.122E+00   0.387E-13 -.675E-02 -.675E-02
   -.582E-14 0.810E+01 0.810E+01   0.372E-13 -.783E+01 -.783E+01   0.000E+00 -.322E+00 -.322E+00   0.285E-13 0.299E-01 0.299E-01
   -.382E-14 -.810E+01 -.810E+01   -.482E-13 0.783E+01 0.783E+01   0.000E+00 0.322E+00 0.322E+00   0.451E-15 -.299E-01 -.299E-01
   -.350E-14 -.395E+02 -.395E+02   0.452E-14 0.395E+02 0.395E+02   0.000E+00 -.122E+00 -.122E+00   0.134E-13 0.675E-02 0.675E-02
   -.547E-14 0.249E-04 -.248E-04   -.107E-13 -.276E-10 -.178E-10   0.000E+00 0.000E+00 0.000E+00   0.121E-13 0.134E-05 0.139E-05
 -----------------------------------------------------------------------------------------------
   0.163E-11 0.177E-03 -.966E-04   -.216E-13 -.212E-13 -.211E-13   0.000E+00 0.874E-15 0.107E-14   0.471E-12 0.430E-05 0.218E-05
 
 
 POSITION                                       TOTAL-FORCE (eV/Angst)
 -----------------------------------------------------------------------------------
      0.00000      3.91401      0.00027         0.000000      0.000000     -0.000000
      0.00000      3.80520      3.80520         0.000000     -0.069607     -0.069607
      0.00000      7.80872      3.89498         0.000000      0.021997      0.021997
      0.00000      7.84817      7.84817         0.000000     -0.021997     -0.021997
      0.00000      0.10909      0.10909         0.000000      0.069607      0.069607
      1.96812      9.79137      5.87764         0.000000     -0.003737     -0.003737
      1.96812      9.78469      9.78469         0.000000     -0.064830     -0.064830
      1.96812      5.86551      5.86551         0.000000      0.003737      0.003737
      1.96812      5.87219      1.95845         0.000000      0.064830      0.064830
      1.96812      1.95714      1.95714         0.000000      0.000000     -0.000000
      1.96812      9.76546      7.85228         0.000000     -0.009690      0.055968
      1.96812      5.87157      7.82844         0.000000      0.000000     -0.000000
      1.96812      5.89143      3.89086         0.000000      0.009690     -0.055968
      1.96812      5.88438      0.03502         0.000000     -0.019185     -0.010899
      1.96812      1.94365     -0.03447         0.000000      0.019185      0.010899
      1.96812      7.85228      9.76546         0.000000      0.055968     -0.009690
      1.96812      7.82844      5.87157         0.000000      0.000000     -0.000000
      1.96812      7.80460      1.97769         0.000000     -0.055968      0.009690
      1.96812      3.94876      1.97064         0.000000     -0.010899     -0.019185
      1.96812      3.87927     -1.97009         0.000000      0.010899      0.019185
      0.00000      9.77750      9.77750         0.000000      0.077360      0.077360
      0.00000      9.77360      5.85986         0.000000     -0.022113     -0.022113
      0.00000      5.88329      5.88329         0.000000      0.022113      0.022113
      0.00000      5.87939      1.96565         0.000000     -0.077360     -0.077360
      0.00000      1.95714      1.95714         0.000000      0.000000     -0.000000
 -----------------------------------------------------------------------------------
    total drift:                                0.000000      0.000181     -0.000094


--------------------------------------------------------------------------------------------------------



  FREE ENERGIE OF THE ION-ELECTRON SYSTEM (eV)
  ---------------------------------------------------
  free  energy   TOTEN  =      -192.65689336 eV

  energy  without entropy=     -192.65689336  energy(sigma->0) =     -192.65689336
 


--------------------------------------------------------------------------------------------------------


    POTLOK:  cpu time    0.0908: real time    0.0910


--------------------------------------------------------------------------------------------------------


     LOOP+:  cpu time   58.2453: real time   58.5598
    4ORBIT:  cpu time    0.0000: real time    0.0000
 


 total charge     
 
# of ion       s       p       d       f       tot
--------------------------------------------------
    1        1.998   5.694   0.469   0.182   8.343
    2        2.000   5.694   0.482   0.186   8.362
    3        1.999   5.696   0.476   0.184   8.355
    4        1.999   5.696   0.476   0.184   8.355
    5        2.000   5.694   0.482   0.186   8.362
    6        0.307   0.453   4.892   0.000   5.652
    7        0.330   0.510   4.872   0.000   5.713
    8        0.307   0.453   4.892   0.000   5.652
    9        0.330   0.510   4.872   0.000   5.713
   10        0.389   0.554   8.324   0.000   9.268
   11        1.563   3.458   0.000   0.000   5.021
   12        1.565   3.451   0.000   0.000   5.016
   13        1.563   3.458   0.000   0.000   5.021
   14        1.560   3.457   0.000   0.000   5.017
   15        1.560   3.457   0.000   0.000   5.017
   16        1.563   3.457   0.000   0.000   5.020
   17        1.566   3.449   0.000   0.000   5.014
   18        1.563   3.457   0.000   0.000   5.020
   19        1.560   3.457   0.000   0.000   5.017
   20        1.560   3.457   0.000   0.000   5.017
   21        1.565   3.453   0.000   0.000   5.018
   22        1.563   3.450   0.000   0.000   5.012
   23        1.563   3.450   0.000   0.000   5.013
   24        1.565   3.454   0.000   0.000   5.019
   25        1.555   3.458   0.000   0.000   5.013
--------------------------------------------------
tot         35.093  82.777  30.238   0.922 149.031

 


 magnetization (x)
 
# of ion       s       p       d       f       tot
--------------------------------------------------
    1        0.000   0.000   0.007   0.004   0.011
    2        0.001   0.001   0.009   0.005   0.015
    3        0.001   0.001   0.013   0.007   0.022
    4        0.001   0.001   0.013   0.007   0.022
    5        0.001   0.001   0.009   0.005   0.015
    6        0.024   0.022   3.847   0.000   3.893
    7        0.026   0.033   3.606   0.000   3.665
    8        0.025   0.022   3.847   0.000   3.894
    9        0.026   0.033   3.606   0.000   3.665
   10        0.012   0.004   1.717   0.000   1.733
   11        0.005  -0.032   0.000   0.000  -0.027
   12        0.006  -0.058   0.000   0.000  -0.051
   13        0.005  -0.032   0.000   0.000  -0.027
   14        0.005  -0.006   0.000   0.000  -0.001
   15        0.005  -0.006   0.000   0.000  -0.001
   16        0.005  -0.033   0.000   0.000  -0.028
   17        0.006  -0.060   0.000   0.000  -0.053
   18        0.005  -0.033   0.000   0.000  -0.028
   19        0.005  -0.007   0.000   0.000  -0.001
   20        0.005  -0.007   0.000   0.000  -0.001
   21        0.007  -0.040   0.000   0.000  -0.033
   22        0.004  -0.045   0.000   0.000  -0.041
   23        0.005  -0.045   0.000   0.000  -0.040
   24        0.007  -0.039   0.000   0.000  -0.033
   25        0.006   0.033   0.000   0.000   0.040
--------------------------------------------------
tot          0.198  -0.292  16.673   0.030  16.608

 
 BZINTS: Fermi energy:  7.957101;183.000000 electrons
         Band energy:-348.389282;  BLOECHL correction: -0.106035

 total amount of memory used by VASP MPI-rank0    59560. kBytes
=======================================================================

   base      :      30000. kBytes
   nonlr-proj:       5642. kBytes
   fftplans  :       2265. kBytes
   grid      :       6360. kBytes
   one-center:        294. kBytes
   wavefun   :      14999. kBytes
 
  
  
 General timing and accounting informations for this job:
 ========================================================
  
                  Total CPU time used (sec):       64.384
                            User time (sec):       62.219
                          System time (sec):        2.166
                         Elapsed time (sec):       64.834
  
                   Maximum memory used (kb):       97004.
                   Average memory used (kb):           0.
  
                          Minor page faults:        35923
                          Major page faults:            0
                 Voluntary context switches:         1499
